 vasp.5.4.4.18Apr17-6-g9f103f2a35 (build Aug 15 2018 17:53:46) complex          
  
 executed on        TETRALITH-B01 date 2020.10.23  09:19:05
 running on   32 total cores
 distrk:  each k-point on   32 cores,    1 groups
 distr:  one band on NCORES_PER_BAND=   8 cores,    4 groups


--------------------------------------------------------------------------------------------------------


 INCAR:
 POTCAR:    PAW_PBE Pd 04Jan2005                  
 POTCAR:    PAW_PBE O 08Apr2002                   
 POTCAR:    PAW_PBE C 08Apr2002                   
 POTCAR:    PAW_PBE Pd 04Jan2005                  
   VRHFIN =Pd : s1 d9                                                           
   LEXCH  = PE                                                                  
   EATOM  =   809.7530 eV,   59.5152 Ry                                         
                                                                                
   TITEL  = PAW_PBE Pd 04Jan2005                                                
   LULTRA =        F    use ultrasoft PP ?                                      
   IUNSCR =        1    unscreen: 0-lin 1-nonlin 2-no                           
   RPACOR =    2.000    partial core radius                                     
   POMASS =  106.420; ZVAL   =   10.000    mass and valenz                      
   RCORE  =    2.600    outmost cutoff radius                                   
   RWIGS  =    2.710; RWIGS  =    1.434    wigner-seitz radius (au A)           
   ENMAX  =  250.925; ENMIN  =  188.194 eV                                      
   ICORE  =        3    local potential                                         
   LCOR   =        T    correct aug charges                                     
   LPAW   =        T    paw PP                                                  
   EAUG   =  416.230                                                            
   DEXC   =    0.000                                                            
   RMAX   =    2.653    core radius for proj-oper                               
   RAUG   =    1.300    factor for augmentation sphere                          
   RDEP   =    2.734    radius for radial grids                                 
   RDEPT  =    2.103    core radius for aug-charge                              
                                                                                
   Atomic configuration                                                         
   12 entries                                                                   
     n  l   j            E        occ.                                          
     1  0  0.50    -24164.6631   2.0000                                         
     2  0  0.50     -3530.9218   2.0000                                         
     2  1  1.50     -3165.6822   6.0000                                         
     3  0  0.50      -639.4577   2.0000                                         
     3  1  1.50      -519.4532   6.0000                                         
     3  2  2.50      -328.9757  10.0000                                         
     4  0  0.50       -88.7014   2.0000                                         
     4  1  1.50       -54.4540   6.0000                                         
     4  2  2.50        -6.6878   9.0000                                         
     5  0  0.50        -4.3543   1.0000                                         
     5  1  0.50        -1.3606   0.0000                                         
     4  3  2.50        -1.3606   0.0000                                         
   Description                                                                  
     l       E           TYP  RCUT    TYP  RCUT                                 
     2     -6.6878251     23  2.400                                             
     2     -8.0484077     23  2.400                                             
     0     -4.3542939     23  2.400                                             
     0      4.3406793     23  2.400                                             
     1     -4.0817478     23  2.600                                             
     1     15.8380318     23  2.600                                             
     3     -4.0817478     23  2.400                                             
  local pseudopotential read in
  partial core-charges read in
  partial kinetic energy density read in
  atomic valenz-charges read in
  non local Contribution for L=           2  read in
    real space projection operators read in
  non local Contribution for L=           2  read in
    real space projection operators read in
  non local Contribution for L=           0  read in
    real space projection operators read in
  non local Contribution for L=           0  read in
    real space projection operators read in
  non local Contribution for L=           1  read in
    real space projection operators read in
  non local Contribution for L=           1  read in
    real space projection operators read in
    PAW grid and wavefunctions read in
 
   number of l-projection  operators is LMAX  =           6
   number of lm-projection operators is LMMAX =          18
 
 POTCAR:    PAW_PBE O 08Apr2002                   
   VRHFIN =O: s2p4                                                              
   LEXCH  = PE                                                                  
   EATOM  =   432.3788 eV,   31.7789 Ry                                         
                                                                                
   TITEL  = PAW_PBE O 08Apr2002                                                 
   LULTRA =        F    use ultrasoft PP ?                                      
   IUNSCR =        1    unscreen: 0-lin 1-nonlin 2-no                           
   RPACOR =    1.200    partial core radius                                     
   POMASS =   16.000; ZVAL   =    6.000    mass and valenz                      
   RCORE  =    1.520    outmost cutoff radius                                   
   RWIGS  =    1.550; RWIGS  =    0.820    wigner-seitz radius (au A)           
   ENMAX  =  400.000; ENMIN  =  300.000 eV                                      
   ICORE  =        2    local potential                                         
   LCOR   =        T    correct aug charges                                     
   LPAW   =        T    paw PP                                                  
   EAUG   =  605.392                                                            
   DEXC   =    0.000                                                            
   RMAX   =    1.553    core radius for proj-oper                               
   RAUG   =    1.300    factor for augmentation sphere                          
   RDEP   =    1.550    radius for radial grids                                 
   RDEPT  =    1.329    core radius for aug-charge                              
                                                                                
   Atomic configuration                                                         
    4 entries                                                                   
     n  l   j            E        occ.                                          
     1  0  0.50      -514.6923   2.0000                                         
     2  0  0.50       -23.9615   2.0000                                         
     2  1  0.50        -9.0305   4.0000                                         
     3  2  1.50        -9.5241   0.0000                                         
   Description                                                                  
     l       E           TYP  RCUT    TYP  RCUT                                 
     0    -23.9615318     23  1.200                                             
     0     -9.5240782     23  1.200                                             
     1     -9.0304911     23  1.520                                             
     1      8.1634956     23  1.520                                             
     2     -9.5240782      7  1.500                                             
  local pseudopotential read in
  partial core-charges read in
  partial kinetic energy density read in
  kinetic energy density of atom read in
  atomic valenz-charges read in
  non local Contribution for L=           0  read in
    real space projection operators read in
  non local Contribution for L=           0  read in
    real space projection operators read in
  non local Contribution for L=           1  read in
    real space projection operators read in
  non local Contribution for L=           1  read in
    real space projection operators read in
    PAW grid and wavefunctions read in
 
   number of l-projection  operators is LMAX  =           4
   number of lm-projection operators is LMMAX =           8
 
 POTCAR:    PAW_PBE C 08Apr2002                   
   VRHFIN =C: s2p2                                                              
   LEXCH  = PE                                                                  
   EATOM  =   147.1560 eV,   10.8157 Ry                                         
                                                                                
   TITEL  = PAW_PBE C 08Apr2002                                                 
   LULTRA =        F    use ultrasoft PP ?                                      
   IUNSCR =        1    unscreen: 0-lin 1-nonlin 2-no                           
   RPACOR =    1.200    partial core radius                                     
   POMASS =   12.011; ZVAL   =    4.000    mass and valenz                      
   RCORE  =    1.500    outmost cutoff radius                                   
   RWIGS  =    1.630; RWIGS  =    0.863    wigner-seitz radius (au A)           
   ENMAX  =  400.000; ENMIN  =  300.000 eV                                      
   ICORE  =        2    local potential                                         
   LCOR   =        T    correct aug charges                                     
   LPAW   =        T    paw PP                                                  
   EAUG   =  644.873                                                            
   DEXC   =    0.000                                                            
   RMAX   =    1.529    core radius for proj-oper                               
   RAUG   =    1.300    factor for augmentation sphere                          
   RDEP   =    1.501    radius for radial grids                                 
   RDEPT  =    1.300    core radius for aug-charge                              
                                                                                
   Atomic configuration                                                         
    4 entries                                                                   
     n  l   j            E        occ.                                          
     1  0  0.50      -273.3789   2.0000                                         
     2  0  0.50       -13.7508   2.0000                                         
     2  1  0.50        -5.2854   2.0000                                         
     3  2  1.50        -5.4423   0.0000                                         
   Description                                                                  
     l       E           TYP  RCUT    TYP  RCUT                                 
     0    -13.7508458     23  1.200                                             
     0     -8.2022199     23  1.200                                             
     1     -5.2854383     23  1.500                                             
     1     34.0145650     23  1.500                                             
     2     -5.4423304      7  1.500                                             
  local pseudopotential read in
  partial core-charges read in
  partial kinetic energy density read in
  atomic valenz-charges read in
  non local Contribution for L=           0  read in
    real space projection operators read in
  non local Contribution for L=           0  read in
    real space projection operators read in
  non local Contribution for L=           1  read in
    real space projection operators read in
  non local Contribution for L=           1  read in
    real space projection operators read in
    PAW grid and wavefunctions read in
 
   number of l-projection  operators is LMAX  =           4
   number of lm-projection operators is LMMAX =           8
 

 ----------------------------------------------------------------------------- 
|                                                                             |
|  ADVICE TO THIS USER RUNNING 'VASP/VAMP'   (HEAR YOUR MASTER'S VOICE ...):  |
|                                                                             |
|      You enforced a specific xc-type in the INCAR file,                     |
|      a different type was found on the POTCAR file                          |
|          I HOPE YOU KNOW, WHAT YOU ARE  DOING                               |
|                                                                             |
 ----------------------------------------------------------------------------- 

  PAW_PBE Pd 04Jan2005                  :
 energy of atom  1       EATOM= -809.7530
 kinetic energy error for atom=    0.0051 (will be added to EATOM!!)
  PAW_PBE O 08Apr2002                   :
 energy of atom  2       EATOM= -432.3788
 kinetic energy error for atom=    0.0389 (will be added to EATOM!!)
  PAW_PBE C 08Apr2002                   :
 energy of atom  3       EATOM= -147.1560
 kinetic energy error for atom=    0.0116 (will be added to EATOM!!)
 
 
 POSCAR: Pd  O  C                                
  positions in cartesian coordinates
  No initial velocities read in
 exchange correlation table for  LEXCH =        9
   RHO(1)=    0.500       N(1)  =     2000
   RHO(2)=  100.500       N(2)  =     4000
 


--------------------------------------------------------------------------------------------------------


 ion  position               nearest neighbor table
   1  0.166  0.166  0.405-   6 2.79   3 2.80   2 2.80   4 2.81   4 2.81   5 2.82   8 2.82   2 2.82
                             3 2.82
   2  0.668  0.166  0.405-   6 2.79   3 2.80   1 2.80   4 2.81   4 2.81   5 2.82   7 2.82   1 2.82
                             3 2.82
   3  0.166  0.668  0.405-   6 2.79   2 2.80   1 2.80   4 2.81   4 2.81   7 2.82   8 2.82   2 2.82
                             1 2.82
   4  0.667  0.667  0.403-   2 2.81   1 2.81   3 2.81   3 2.81   1 2.81   2 2.81   5 2.86   8 2.86
                             7 2.86
   5  0.834  0.332  0.498-  12 2.78  11 2.78   7 2.80   8 2.80   6 2.81   6 2.81   2 2.82   1 2.82
                             8 2.82   7 2.82   4 2.86   9 2.90
   6  0.333  0.333  0.497-   2 2.79   1 2.79   3 2.79  10 2.81  11 2.81  12 2.81   7 2.81   8 2.81
                             5 2.81   5 2.81   8 2.81   7 2.81
   7  0.834  0.834  0.498-  10 2.78  11 2.78   8 2.80   5 2.80   6 2.81   6 2.81   3 2.82   2 2.82
                             5 2.82   8 2.82   4 2.86   9 2.90
   8  0.332  0.834  0.498-  10 2.78  12 2.78   7 2.80   5 2.80   6 2.81   6 2.81   3 2.82   1 2.82
                             5 2.82   7 2.82   4 2.86   9 2.90
   9  0.000  0.000  0.596-  14 1.86  12 2.82  11 2.82  10 2.82  10 2.82  11 2.82  12 2.82   8 2.90
                             7 2.90   5 2.90
  10  0.500  1.000  0.590-   7 2.78   8 2.78   6 2.81  11 2.81  12 2.81  12 2.81  11 2.81   9 2.82
                             9 2.82
  11  1.000  0.500  0.590-   5 2.78   7 2.78   6 2.81  12 2.81  10 2.81  10 2.81  12 2.81   9 2.82
                             9 2.82
  12  0.500  0.500  0.590-   5 2.78   8 2.78   6 2.81  11 2.81  10 2.81  10 2.81  11 2.81   9 2.82
                             9 2.82
  13  0.000  0.000  0.719-  14 1.16
  14  0.000  0.000  0.672-  13 1.16   9 1.86
 
  LATTYP: Found a hexagonal cell.
 ALAT       =     5.6251687946
 C/A-ratio  =     4.3719454448
  
  Lattice vectors:
  
 A1 = (   2.8125843973,  -4.8715390767,   0.0000000000)
 A2 = (  -5.6251687946,   0.0000000000,   0.0000000000)
 A3 = (   0.0000000000,   0.0000000000, -24.5929310880)


Analysis of symmetry for initial positions (statically):
=====================================================================
 Subroutine PRICEL returns:
 Original cell was already a primitive cell.
 

 Routine SETGRP: Setting up the symmetry group for a 
 hexagonal supercell.


 Subroutine GETGRP returns: Found  6 space group operations
 (whereof  6 operations were pure point group operations)
 out of a pool of 24 trial point group operations.


The static configuration has the point symmetry C_3v.


Analysis of symmetry for dynamics (positions and initial velocities):
=====================================================================
 Subroutine PRICEL returns:
 Original cell was already a primitive cell.
 

 Routine SETGRP: Setting up the symmetry group for a 
 hexagonal supercell.


 Subroutine GETGRP returns: Found  6 space group operations
 (whereof  6 operations were pure point group operations)
 out of a pool of 24 trial point group operations.


The dynamic configuration has the point symmetry C_3v.


 Subroutine INISYM returns: Found  6 space group operations
 (whereof  6 operations are pure point group operations),
 and found     1 'primitive' translations

 
 
 KPOINTS: KPOINTS created by Atomic Simulation Env

Automatic generation of k-mesh.
Space group operators:
 irot       det(A)        alpha          n_x          n_y          n_z        tau_x        tau_y        tau_z
    1     1.000000     0.000000     1.000000     0.000000     0.000000     0.000000     0.000000     0.000000
    2     1.000000   120.000000     0.000000     0.000000     1.000000     0.000000     0.000000     0.000000
    3     1.000000   120.000000     0.000000     0.000000    -1.000000     0.000000     0.000000     0.000000
    4    -1.000000   180.000000     0.500000    -0.866025     0.000000     0.000000     0.000000     0.000000
    5    -1.000000   180.000000     1.000000    -0.000000     0.000000     0.000000     0.000000     0.000000
    6    -1.000000   180.000000    -0.500000    -0.866025     0.000000     0.000000     0.000000     0.000000
 
 Subroutine IBZKPT returns following result:
 ===========================================
 
 Found     20 irreducible k-points:
 
 Following reciprocal coordinates:
            Coordinates               Weight
  0.062500  0.062500  0.000000     48.000000
  0.187500  0.062500  0.000000     96.000000
  0.312500  0.062500  0.000000     96.000000
  0.437500  0.062500  0.000000     96.000000
 -0.437500  0.062500  0.000000     96.000000
 -0.312500  0.062500  0.000000     96.000000
 -0.187500  0.062500  0.000000     96.000000
 -0.062500  0.062500  0.000000     48.000000
  0.187500  0.187500  0.000000     48.000000
  0.312500  0.187500  0.000000     96.000000
  0.437500  0.187500  0.000000     96.000000
 -0.437500  0.187500  0.000000     96.000000
 -0.312500  0.187500  0.000000     96.000000
 -0.187500  0.187500  0.000000     48.000000
  0.312500  0.312500  0.000000     48.000000
  0.437500  0.312500  0.000000     96.000000
 -0.437500  0.312500  0.000000     96.000000
 -0.312500  0.312500  0.000000     48.000000
  0.437500  0.437500  0.000000     48.000000
 -0.437500  0.437500  0.000000     48.000000
 
 Following cartesian coordinates:
            Coordinates               Weight
  0.011111  0.006415  0.000000     48.000000
  0.033332 -0.006415  0.000000     96.000000
  0.055554 -0.019244  0.000000     96.000000
  0.077775 -0.032074  0.000000     96.000000
 -0.077775  0.057733  0.000000     96.000000
 -0.055554  0.044904  0.000000     96.000000
 -0.033332  0.032074  0.000000     96.000000
 -0.011111  0.019244  0.000000     48.000000
  0.033332  0.019244  0.000000     48.000000
  0.055554  0.006415  0.000000     96.000000
  0.077775 -0.006415  0.000000     96.000000
 -0.077775  0.083393  0.000000     96.000000
 -0.055554  0.070563  0.000000     96.000000
 -0.033332  0.057733  0.000000     48.000000
  0.055554  0.032074  0.000000     48.000000
  0.077775  0.019244  0.000000     96.000000
 -0.077775  0.109052  0.000000     96.000000
 -0.055554  0.096222  0.000000     48.000000
  0.077775  0.044904  0.000000     48.000000
 -0.077775  0.134711  0.000000     48.000000
 


--------------------------------------------------------------------------------------------------------




 Dimension of arrays:
   k-points           NKPTS =     20   k-points in BZ     NKDIM =     20   number of bands    NBANDS=     80
   number of dos      NEDOS =    301   number of ions     NIONS =     14
   non local maximal  LDIM  =      6   non local SUM 2l+1 LMDIM =     18
   total plane-waves  NPLWV = 288000
   max r-space proj   IRMAX =      1   max aug-charges    IRDMAX=  20927
   dimension x,y,z NGX =    40 NGY =   40 NGZ =  180
   dimension x,y,z NGXF=    80 NGYF=   80 NGZF=  360
   support grid    NGXF=    80 NGYF=   80 NGZF=  360
   ions per type =              12   1   1
   NGX,Y,Z   is equivalent  to a cutoff of  11.82, 11.82, 12.17 a.u.
   NGXF,Y,Z  is equivalent  to a cutoff of  23.64, 23.64, 24.34 a.u.

 SYSTEM =  out                                     
 POSCAR =  Pd  O  C                                

 Startparameter for this run:
   NWRITE =      2    write-flag & timer
   PREC   = accura    normal or accurate (medium, high low for compatibility)
   ISTART =      1    job   : 0-new  1-cont  2-samecut
   ICHARG =      0    charge: 1-file 2-atom 10-const
   ISPIN  =      1    spin polarized calculation?
   LNONCOLLINEAR =      F non collinear calculations
   LSORBIT =      F    spin-orbit coupling
   INIWAV =      1    electr: 0-lowe 1-rand  2-diag
   LASPH  =      F    aspherical Exc in radial PAW
   METAGGA=      F    non-selfconsistent MetaGGA calc.

 Electronic Relaxation 1
   ENCUT  =  450.0 eV  33.07 Ry    5.75 a.u.   9.73  9.73 42.54*2*pi/ulx,y,z
   ENINI  =  450.0     initial cutoff
   ENAUG  =  644.9 eV  augmentation charge cutoff
   NELM   =     60;   NELMIN=  2; NELMDL=  0     # of ELM steps 
   EDIFF  = 0.1E-03   stopping-criterion for ELM
   LREAL  =      F    real-space projection
   NLSPLINE    = F    spline interpolate recip. space projectors
   LCOMPAT=      F    compatible to vasp.4.4
   GGA_COMPAT  = T    GGA compatible to vasp.4.4-vasp.4.6
   LMAXPAW     = -100 max onsite density
   LMAXMIX     =    2 max onsite mixed and CHGCAR
   VOSKOWN=      0    Vosko Wilk Nusair interpolation
   ROPT   =    0.00000   0.00000   0.00000
 Ionic relaxation
   EDIFFG = 0.1E-02   stopping-criterion for IOM
   NSW    =      0    number of steps for IOM
   NBLOCK =      1;   KBLOCK =      1    inner block; outer block 
   IBRION =     -1    ionic relax: 0-MD 1-quasi-New 2-CG
   NFREE  =      0    steps in history (QN), initial steepest desc. (CG)
   ISIF   =      2    stress and relaxation
   IWAVPR =     10    prediction:  0-non 1-charg 2-wave 3-comb
   ISYM   =      2    0-nonsym 1-usesym 2-fastsym
   LCORR  =      T    Harris-Foulkes like correction to forces

   POTIM  = 0.5000    time-step for ionic-motion
   TEIN   =    0.0    initial temperature
   TEBEG  =    0.0;   TEEND  =   0.0 temperature during run
   SMASS  =  -3.00    Nose mass-parameter (am)
   estimated Nose-frequenzy (Omega)   =  0.10E-29 period in steps =****** mass=  -0.723E-27a.u.
   SCALEE = 1.0000    scale energy and forces
   NPACO  =    256;   APACO  = 16.0  distance and # of slots for P.C.
   PSTRESS=    0.0 pullay stress

  Mass of Ions in am
   POMASS = 106.42 16.00 12.01
  Ionic Valenz
   ZVAL   =  10.00  6.00  4.00
  Atomic Wigner-Seitz radii
   RWIGS  =  -1.00 -1.00 -1.00
  virtual crystal weights 
   VCA    =   1.00  1.00  1.00
   NELECT =     130.0000    total number of electrons
   NUPDOWN=      -1.0000    fix difference up-down

 DOS related values:
   EMIN   =  10.00;   EMAX   =-10.00  energy-range for DOS
   EFERMI =   0.00
   ISMEAR =     0;   SIGMA  =   0.05  broadening in eV -4-tet -1-fermi 0-gaus

 Electronic relaxation 2 (details)
   IALGO  =     68    algorithm
   LDIAG  =      T    sub-space diagonalisation (order eigenvalues)
   LSUBROT=      F    optimize rotation matrix (better conditioning)
   TURBO    =      0    0=normal 1=particle mesh
   IRESTART =      0    0=no restart 2=restart with 2 vectors
   NREBOOT  =      0    no. of reboots
   NMIN     =      0    reboot dimension
   EREF     =   0.00    reference energy to select bands
   IMIX   =      4    mixing-type and parameters
     AMIX     =   0.40;   BMIX     =  1.00
     AMIX_MAG =   1.60;   BMIX_MAG =  1.00
     AMIN     =   0.10
     WC   =   100.;   INIMIX=   1;  MIXPRE=   1;  MAXMIX= -45

 Intra band minimization:
   WEIMIN = 0.0000     energy-eigenvalue tresh-hold
   EBREAK =  0.31E-06  absolut break condition
   DEPER  =   0.30     relativ break condition  

   TIME   =   0.40     timestep for ELM

  volume/ion in A,a.u.               =      48.14       324.85
  Fermi-wavevector in a.u.,A,eV,Ry     =   0.945915  1.787519 12.173873  0.894754
  Thomas-Fermi vector in A             =   2.073862
 
 Write flags
   LWAVE        =      T    write WAVECAR
   LDOWNSAMPLE  =      F    k-point downsampling of WAVECAR
   LCHARG       =      T    write CHGCAR
   LVTOT        =      F    write LOCPOT, total local potential
   LVHAR        =      F    write LOCPOT, Hartree potential only
   LELF         =      F    write electronic localiz. function (ELF)
   LORBIT       =      0    0 simple, 1 ext, 2 COOP (PROOUT), +10 PAW based schemes


 Dipole corrections
   LMONO  =      F    monopole corrections only (constant potential shift)
   LDIPOL =      F    correct potential (dipole corrections)
   IDIPOL =      0    1-x, 2-y, 3-z, 4-all directions 
   EPSILON=  1.0000000 bulk dielectric constant

 Exchange correlation treatment:
   GGA     =    RP    GGA type
   LEXCH   =     9    internal setting for exchange type
   VOSKOWN=      0    Vosko Wilk Nusair interpolation
   LHFCALC =     F    Hartree Fock is set to
   LHFONE  =     F    Hartree Fock one center treatment
   AEXX    =    0.0000 exact exchange contribution

 Linear response parameters
   LEPSILON=     F    determine dielectric tensor
   LRPA    =     F    only Hartree local field effects (RPA)
   LNABLA  =     F    use nabla operator in PAW spheres
   LVEL    =     F    velocity operator in full k-point grid
   LINTERFAST=   F  fast interpolation
   KINTER  =     0    interpolate to denser k-point grid
   CSHIFT  =0.1000    complex shift for real part using Kramers Kronig
   OMEGAMAX=  -1.0    maximum frequency
   DEG_THRESHOLD= 0.2000000E-02 threshold for treating states as degnerate
   RTIME   =   -0.100 relaxation time in fs
  (WPLASMAI=    0.000 imaginary part of plasma frequency in eV, 0.658/RTIME)
   DFIELD  = 0.0000000 0.0000000 0.0000000 field for delta impulse in time
 
 Orbital magnetization related:
   ORBITALMAG=     F  switch on orbital magnetization
   LCHIMAG   =     F  perturbation theory with respect to B field
   DQ        =  0.001000  dq finite difference perturbation B field
   LLRAUG    =     F  two centre corrections for induced B field



--------------------------------------------------------------------------------------------------------


 Static calculation
 charge density and potential will be updated during run
 non-spin polarized calculation
 RMM-DIIS sequential band-by-band and
  variant of blocked Davidson during initial phase
 perform sub-space diagonalisation
    before iterative eigenvector-optimisation
 modified Broyden-mixing scheme, WC =      100.0
 initial mixing is a Kerker type mixing with AMIX =  0.4000 and BMIX =      1.0000
 Hartree-type preconditioning will be used
 using additional bands           15
 reciprocal scheme for non local part
 use partial core corrections
 calculate Harris-corrections to forces 
   (improved forces if not selfconsistent)
 use gradient corrections 
 use of overlap-Matrix (Vanderbilt PP)
 Gauss-broadening in eV      SIGMA  =   0.05


--------------------------------------------------------------------------------------------------------


  energy-cutoff  :      450.00
  volume of cell :      673.93
      direct lattice vectors                 reciprocal lattice vectors
     5.625168795  0.000000000  0.000000000     0.177772443 -0.102636968  0.000000000
     2.812584397  4.871539077  0.000000000     0.000000000  0.205273936  0.000000000
     0.000000000  0.000000000 24.592931088     0.000000000  0.000000000  0.040662091

  length of vectors
     5.625168795  5.625168795 24.592931088     0.205273936  0.205273936  0.040662091


 
 old parameters found on file WAVECAR:
  energy-cutoff  :      450.00
  volume of cell :      673.93
      direct lattice vectors                 reciprocal lattice vectors
     5.625168795  0.000000000  0.000000000     0.177772443 -0.102636968  0.000000000
     2.812584397  4.871539077  0.000000000     0.000000000  0.205273936  0.000000000
     0.000000000  0.000000000 24.592931088     0.000000000  0.000000000  0.040662091

  length of vectors

 
 k-points in units of 2pi/SCALE and weight: KPOINTS created by Atomic Simulation Env
   0.01111078  0.00641481  0.00000000       0.031
   0.03333233 -0.00641481  0.00000000       0.062
   0.05555389 -0.01924443  0.00000000       0.062
   0.07777544 -0.03207405  0.00000000       0.062
  -0.07777544  0.05773329  0.00000000       0.062
  -0.05555389  0.04490367  0.00000000       0.062
  -0.03333233  0.03207405  0.00000000       0.062
  -0.01111078  0.01924443  0.00000000       0.031
   0.03333233  0.01924443  0.00000000       0.031
   0.05555389  0.00641481  0.00000000       0.062
   0.07777544 -0.00641481  0.00000000       0.062
  -0.07777544  0.08339254  0.00000000       0.062
  -0.05555389  0.07056292  0.00000000       0.062
  -0.03333233  0.05773329  0.00000000       0.031
   0.05555389  0.03207405  0.00000000       0.031
   0.07777544  0.01924443  0.00000000       0.062
  -0.07777544  0.10905178  0.00000000       0.062
  -0.05555389  0.09622216  0.00000000       0.031
   0.07777544  0.04490367  0.00000000       0.031
  -0.07777544  0.13471102  0.00000000       0.031
 
 k-points in reciprocal lattice and weights: KPOINTS created by Atomic Simulation Env
   0.06250000  0.06250000  0.00000000       0.031
   0.18750000  0.06250000  0.00000000       0.062
   0.31250000  0.06250000  0.00000000       0.062
   0.43750000  0.06250000  0.00000000       0.062
  -0.43750000  0.06250000  0.00000000       0.062
  -0.31250000  0.06250000  0.00000000       0.062
  -0.18750000  0.06250000  0.00000000       0.062
  -0.06250000  0.06250000  0.00000000       0.031
   0.18750000  0.18750000  0.00000000       0.031
   0.31250000  0.18750000  0.00000000       0.062
   0.43750000  0.18750000  0.00000000       0.062
  -0.43750000  0.18750000  0.00000000       0.062
  -0.31250000  0.18750000  0.00000000       0.062
  -0.18750000  0.18750000  0.00000000       0.031
   0.31250000  0.31250000  0.00000000       0.031
   0.43750000  0.31250000  0.00000000       0.062
  -0.43750000  0.31250000  0.00000000       0.062
  -0.31250000  0.31250000  0.00000000       0.031
   0.43750000  0.43750000  0.00000000       0.031
  -0.43750000  0.43750000  0.00000000       0.031
 
 position of ions in fractional coordinates (direct lattice) 
   0.16608907  0.16608910  0.40467625
   0.66782182  0.16608910  0.40467625
   0.16608906  0.66782188  0.40467625
   0.66666667  0.66666667  0.40307007
   0.83404954  0.33190091  0.49849490
   0.33333333  0.33333333  0.49682794
   0.83404955  0.83404955  0.49849490
   0.33190089  0.83404955  0.49849490
   0.00000000  0.00000000  0.59642880
   0.50002591  0.99994818  0.59012780
   0.99994818  0.50002589  0.59012780
   0.50002594  0.50002589  0.59012780
   0.00000000  0.00000000  0.71937733
   0.00000000  0.00000000  0.67208969
 
 position of ions in cartesian coordinates  (Angst):
   1.40141869  0.80910956  9.95217508
   4.22375010  0.80910956  9.95217508
   2.81258440  3.25332037  9.95217508
   5.62516879  3.24769272  9.91267457
   5.62516879  1.61686826 12.25945083
   2.81258440  1.62384636 12.21845540
   7.03750428  4.06310499 12.25945083
   4.21283331  4.06310499 12.25945083
   0.00000000  0.00000000 14.66793232
   5.62516879  4.87128664 14.51297230
   7.03124229  2.43589565 14.51297230
   4.21909530  2.43589565 14.51297230
   0.00000000  0.00000000 17.69159699
   0.00000000  0.00000000 16.52865536
 


--------------------------------------------------------------------------------------------------------


 k-point  1 :   0.0625 0.0625 0.0000  plane waves:   14629
 k-point  2 :   0.1875 0.0625 0.0000  plane waves:   14620
 k-point  3 :   0.3125 0.0625 0.0000  plane waves:   14606
 k-point  4 :   0.4375 0.0625 0.0000  plane waves:   14612
 k-point  5 :  -0.4375 0.0625 0.0000  plane waves:   14631
 k-point  6 :  -0.3125 0.0625 0.0000  plane waves:   14620
 k-point  7 :  -0.1875 0.0625 0.0000  plane waves:   14619
 k-point  8 :  -0.0625 0.0625 0.0000  plane waves:   14601
 k-point  9 :   0.1875 0.1875 0.0000  plane waves:   14597
 k-point 10 :   0.3125 0.1875 0.0000  plane waves:   14598
 k-point 11 :   0.4375 0.1875 0.0000  plane waves:   14596
 k-point 12 :  -0.4375 0.1875 0.0000  plane waves:   14592
 k-point 13 :  -0.3125 0.1875 0.0000  plane waves:   14610
 k-point 14 :  -0.1875 0.1875 0.0000  plane waves:   14602
 k-point 15 :   0.3125 0.3125 0.0000  plane waves:   14619
 k-point 16 :   0.4375 0.3125 0.0000  plane waves:   14614
 k-point 17 :  -0.4375 0.3125 0.0000  plane waves:   14585
 k-point 18 :  -0.3125 0.3125 0.0000  plane waves:   14600
 k-point 19 :   0.4375 0.4375 0.0000  plane waves:   14636
 k-point 20 :  -0.4375 0.4375 0.0000  plane waves:   14596

 maximum and minimum number of plane-waves per node :      1845     1809

 maximum number of plane-waves:     14636
 maximum index in each direction: 
   IXMAX=   10   IYMAX=    9   IZMAX=   42
   IXMIN=  -10   IYMIN=  -10   IZMIN=  -42


 parallel 3D FFT for wavefunctions:
    minimum data exchange during FFTs selected (reduces bandwidth)
 parallel 3D FFT for charge:
    minimum data exchange during FFTs selected (reduces bandwidth)


 total amount of memory used by VASP MPI-rank0    69296. kBytes
=======================================================================

   base      :      30000. kBytes
   nonl-proj :      16345. kBytes
   fftplans  :       3893. kBytes
   grid      :       6995. kBytes
   one-center:         31. kBytes
   wavefun   :      12032. kBytes
 
     INWAV:  cpu time    0.8988: real time    0.9018
 Broyden mixing: mesh for mixing (old mesh)
   NGX = 19   NGY = 19   NGZ = 85
  (NGX  = 80   NGY  = 80   NGZ  =360)
  gives a total of  30685 points

 charge density for first step will be calculated from the start-wavefunctions


--------------------------------------------------------------------------------------------------------


 Maximum index for augmentation-charges         1193 (set IRDMAX)


--------------------------------------------------------------------------------------------------------


 initial charge from wavefunction
 First call to EWALD:  gamma=   0.202
 Maximum number of real-space cells 5x 5x 1
 Maximum number of reciprocal cells 2x 2x 7

    FEWALD:  cpu time    0.0017: real time    0.0018


--------------------------------------- Iteration      1(   1)  ---------------------------------------


    POTLOK:  cpu time    0.0415: real time    0.0429
    SETDIJ:  cpu time    0.0035: real time    0.0037
     EDDAV:  cpu time    2.5331: real time    2.5421
       DOS:  cpu time    0.0014: real time    0.0015
    CHARGE:  cpu time    0.1509: real time    0.1512
    MIXING:  cpu time    0.0023: real time    0.0027
    --------------------------------------------
      LOOP:  cpu time    2.7328: real time    2.7440

 eigenvalue-minimisations  :  3288
 total energy-change (2. order) :-0.6725838E+02  (-0.4179160E-02)
 number of electron     129.9999988 magnetization 
 augmentation part       51.4064252 magnetization 

 Broyden mixing:
  rms(total) = 0.83239E-01    rms(broyden)= 0.83221E-01
  rms(prec ) = 0.93734E-01
  weight for this iteration     100.00

 Free energy of the ion-electron system (eV)
  ---------------------------------------------------
  alpha Z        PSCENC =       159.29618539
  Ewald energy   TEWEN  =     44181.72351201
  -Hartree energ DENC   =    -54618.88983741
  -exchange      EXHF   =         0.00000000
  -V(xc)+E(xc)   XCENC  =      -323.67512684
  PAW double counting   =     12177.83994121   -11444.65689596
  entropy T*S    EENTRO =        -0.03861285
  eigenvalues    EBANDS =      -489.06693285
  atomic energy  EATOM  =     10290.20938908
  Solvation  Ediel_sol  =         0.00000000
  ---------------------------------------------------
  free energy    TOTEN  =       -67.25837821 eV

  energy without entropy =      -67.21976536  energy(sigma->0) =      -67.23907178


--------------------------------------------------------------------------------------------------------




--------------------------------------- Iteration      1(   2)  ---------------------------------------


    POTLOK:  cpu time    0.0382: real time    0.0383
    SETDIJ:  cpu time    0.0034: real time    0.0034
    EDDIAG:  cpu time    0.4258: real time    0.4275
  RMM-DIIS:  cpu time    1.9034: real time    1.9090
    ORTHCH:  cpu time    0.0430: real time    0.0431
       DOS:  cpu time    0.0012: real time    0.0012
    CHARGE:  cpu time    0.1474: real time    0.1477
    MIXING:  cpu time    0.0017: real time    0.0019
    --------------------------------------------
      LOOP:  cpu time    2.5642: real time    2.5721

 eigenvalue-minimisations  :  3296
 total energy-change (2. order) :-0.8062980E-01  (-0.1534990E-01)
 number of electron     129.9999987 magnetization 
 augmentation part       51.4110118 magnetization 

 Broyden mixing:
  rms(total) = 0.29137E+00    rms(broyden)= 0.29130E+00
  rms(prec ) = 0.35075E+00
  weight for this iteration     100.00

 eigenvalues of (default mixing * dielectric matrix)
  average eigenvalue GAMMA=   0.2092
  0.2092

 Free energy of the ion-electron system (eV)
  ---------------------------------------------------
  alpha Z        PSCENC =       159.29618539
  Ewald energy   TEWEN  =     44181.72351201
  -Hartree energ DENC   =    -54618.84905507
  -exchange      EXHF   =         0.00000000
  -V(xc)+E(xc)   XCENC  =      -323.67954534
  PAW double counting   =     12177.97639156   -11444.80033045
  entropy T*S    EENTRO =        -0.03847151
  eigenvalues    EBANDS =      -489.17708370
  atomic energy  EATOM  =     10290.20938908
  Solvation  Ediel_sol  =         0.00000000
  ---------------------------------------------------
  free energy    TOTEN  =       -67.33900801 eV

  energy without entropy =      -67.30053650  energy(sigma->0) =      -67.31977225


--------------------------------------------------------------------------------------------------------




--------------------------------------- Iteration      1(   3)  ---------------------------------------


    POTLOK:  cpu time    0.0379: real time    0.0382
    SETDIJ:  cpu time    0.0033: real time    0.0033
    EDDIAG:  cpu time    0.4276: real time    0.4288
  RMM-DIIS:  cpu time    1.9138: real time    1.9186
    ORTHCH:  cpu time    0.0432: real time    0.0433
       DOS:  cpu time    0.0013: real time    0.0013
    CHARGE:  cpu time    0.1489: real time    0.1493
    MIXING:  cpu time    0.0017: real time    0.0017
    --------------------------------------------
      LOOP:  cpu time    2.5778: real time    2.5846

 eigenvalue-minimisations  :  3292
 total energy-change (2. order) : 0.5790194E-01  (-0.5416768E-02)
 number of electron     129.9999988 magnetization 
 augmentation part       51.3975948 magnetization 

 Broyden mixing:
  rms(total) = 0.17869E+00    rms(broyden)= 0.17861E+00
  rms(prec ) = 0.23523E+00
  weight for this iteration     100.00

 eigenvalues of (default mixing * dielectric matrix)
  average eigenvalue GAMMA=   0.1885
  0.2621  0.1149

 Free energy of the ion-electron system (eV)
  ---------------------------------------------------
  alpha Z        PSCENC =       159.29618539
  Ewald energy   TEWEN  =     44181.72351201
  -Hartree energ DENC   =    -54618.89429366
  -exchange      EXHF   =         0.00000000
  -V(xc)+E(xc)   XCENC  =      -323.67918045
  PAW double counting   =     12177.92379581   -11444.74544532
  entropy T*S    EENTRO =        -0.03827144
  eigenvalues    EBANDS =      -489.07679749
  atomic energy  EATOM  =     10290.20938908
  Solvation  Ediel_sol  =         0.00000000
  ---------------------------------------------------
  free energy    TOTEN  =       -67.28110607 eV

  energy without entropy =      -67.24283463  energy(sigma->0) =      -67.26197035


--------------------------------------------------------------------------------------------------------




--------------------------------------- Iteration      1(   4)  ---------------------------------------


    POTLOK:  cpu time    0.0390: real time    0.0393
    SETDIJ:  cpu time    0.0035: real time    0.0035
    EDDIAG:  cpu time    0.4170: real time    0.4181
  RMM-DIIS:  cpu time    1.8353: real time    1.8404
    ORTHCH:  cpu time    0.0430: real time    0.0431
       DOS:  cpu time    0.0013: real time    0.0013
    CHARGE:  cpu time    0.1469: real time    0.1472
    MIXING:  cpu time    0.0017: real time    0.0017
    --------------------------------------------
      LOOP:  cpu time    2.4877: real time    2.4947

 eigenvalue-minimisations  :  3185
 total energy-change (2. order) : 0.2963896E-01  (-0.1471891E-02)
 number of electron     129.9999988 magnetization 
 augmentation part       51.4053837 magnetization 

 Broyden mixing:
  rms(total) = 0.29679E-01    rms(broyden)= 0.29595E-01
  rms(prec ) = 0.36848E-01
  weight for this iteration     100.00

 eigenvalues of (default mixing * dielectric matrix)
  average eigenvalue GAMMA=   0.2195
  0.2792  0.2792  0.1002

 Free energy of the ion-electron system (eV)
  ---------------------------------------------------
  alpha Z        PSCENC =       159.29618539
  Ewald energy   TEWEN  =     44181.72351201
  -Hartree energ DENC   =    -54619.14650731
  -exchange      EXHF   =         0.00000000
  -V(xc)+E(xc)   XCENC  =      -323.67964871
  PAW double counting   =     12177.87367733   -11444.69746898
  entropy T*S    EENTRO =        -0.03896118
  eigenvalues    EBANDS =      -488.79164476
  atomic energy  EATOM  =     10290.20938908
  Solvation  Ediel_sol  =         0.00000000
  ---------------------------------------------------
  free energy    TOTEN  =       -67.25146711 eV

  energy without entropy =      -67.21250594  energy(sigma->0) =      -67.23198653


--------------------------------------------------------------------------------------------------------




--------------------------------------- Iteration      1(   5)  ---------------------------------------


    POTLOK:  cpu time    0.0383: real time    0.0386
    SETDIJ:  cpu time    0.0033: real time    0.0033
    EDDIAG:  cpu time    0.4143: real time    0.4155
  RMM-DIIS:  cpu time    1.8563: real time    1.8610
    ORTHCH:  cpu time    0.0433: real time    0.0434
       DOS:  cpu time    0.0013: real time    0.0013
    CHARGE:  cpu time    0.1495: real time    0.1498
    MIXING:  cpu time    0.0019: real time    0.0019
    --------------------------------------------
      LOOP:  cpu time    2.5084: real time    2.5149

 eigenvalue-minimisations  :  3172
 total energy-change (2. order) : 0.9959799E-03  (-0.1586622E-03)
 number of electron     129.9999988 magnetization 
 augmentation part       51.4088170 magnetization 

 Broyden mixing:
  rms(total) = 0.15915E-01    rms(broyden)= 0.15907E-01
  rms(prec ) = 0.17602E-01
  weight for this iteration     100.00

 eigenvalues of (default mixing * dielectric matrix)
  average eigenvalue GAMMA=   0.2790
  0.4801  0.3377  0.1015  0.1967

 Free energy of the ion-electron system (eV)
  ---------------------------------------------------
  alpha Z        PSCENC =       159.29618539
  Ewald energy   TEWEN  =     44181.72351201
  -Hartree energ DENC   =    -54618.80347708
  -exchange      EXHF   =         0.00000000
  -V(xc)+E(xc)   XCENC  =      -323.67755617
  PAW double counting   =     12177.67270424   -11444.49608078
  entropy T*S    EENTRO =        -0.03925076
  eigenvalues    EBANDS =      -489.13589708
  atomic energy  EATOM  =     10290.20938908
  Solvation  Ediel_sol  =         0.00000000
  ---------------------------------------------------
  free energy    TOTEN  =       -67.25047113 eV

  energy without entropy =      -67.21122038  energy(sigma->0) =      -67.23084576


--------------------------------------------------------------------------------------------------------




--------------------------------------- Iteration      1(   6)  ---------------------------------------


    POTLOK:  cpu time    0.0390: real time    0.0393
    SETDIJ:  cpu time    0.0034: real time    0.0036
    EDDIAG:  cpu time    0.4228: real time    0.4238
  RMM-DIIS:  cpu time    1.2597: real time    1.2633
    ORTHCH:  cpu time    0.0430: real time    0.0432
       DOS:  cpu time    0.0014: real time    0.0014
    CHARGE:  cpu time    0.1471: real time    0.1475
    MIXING:  cpu time    0.0016: real time    0.0016
    --------------------------------------------
      LOOP:  cpu time    1.9181: real time    1.9236

 eigenvalue-minimisations  :  2054
 total energy-change (2. order) : 0.1734006E-03  (-0.2421013E-04)
 number of electron     129.9999988 magnetization 
 augmentation part       51.4066594 magnetization 

 Broyden mixing:
  rms(total) = 0.64699E-02    rms(broyden)= 0.64670E-02
  rms(prec ) = 0.70471E-02
  weight for this iteration     100.00

 eigenvalues of (default mixing * dielectric matrix)
  average eigenvalue GAMMA=   0.3869
  0.8121  0.5432  0.1012  0.2808  0.1970

 Free energy of the ion-electron system (eV)
  ---------------------------------------------------
  alpha Z        PSCENC =       159.29618539
  Ewald energy   TEWEN  =     44181.72351201
  -Hartree energ DENC   =    -54618.97186602
  -exchange      EXHF   =         0.00000000
  -V(xc)+E(xc)   XCENC  =      -323.67696716
  PAW double counting   =     12177.50407907   -11444.32442125
  entropy T*S    EENTRO =        -0.03911737
  eigenvalues    EBANDS =      -488.97109148
  atomic energy  EATOM  =     10290.20938908
  Solvation  Ediel_sol  =         0.00000000
  ---------------------------------------------------
  free energy    TOTEN  =       -67.25029773 eV

  energy without entropy =      -67.21118036  energy(sigma->0) =      -67.23073905


--------------------------------------------------------------------------------------------------------




--------------------------------------- Iteration      1(   7)  ---------------------------------------


    POTLOK:  cpu time    0.0377: real time    0.0380
    SETDIJ:  cpu time    0.0034: real time    0.0034
    EDDIAG:  cpu time    0.4278: real time    0.4288
  RMM-DIIS:  cpu time    1.1216: real time    1.1244
    ORTHCH:  cpu time    0.0430: real time    0.0430
       DOS:  cpu time    0.0012: real time    0.0012
    --------------------------------------------
      LOOP:  cpu time    1.6346: real time    1.6389

 eigenvalue-minimisations  :  1777
 total energy-change (2. order) : 0.2592403E-04  (-0.1134730E-04)
 number of electron     129.9999988 magnetization 
 augmentation part       51.4066594 magnetization 

 Free energy of the ion-electron system (eV)
  ---------------------------------------------------
  alpha Z        PSCENC =       159.29618539
  Ewald energy   TEWEN  =     44181.72351201
  -Hartree energ DENC   =    -54618.98913762
  -exchange      EXHF   =         0.00000000
  -V(xc)+E(xc)   XCENC  =      -323.67678961
  PAW double counting   =     12177.31066890   -11444.13034058
  entropy T*S    EENTRO =        -0.03916855
  eigenvalues    EBANDS =      -488.95459085
  atomic energy  EATOM  =     10290.20938908
  Solvation  Ediel_sol  =         0.00000000
  ---------------------------------------------------
  free energy    TOTEN  =       -67.25027181 eV

  energy without entropy =      -67.21110326  energy(sigma->0) =      -67.23068754


--------------------------------------------------------------------------------------------------------




 average (electrostatic) potential at core
  the test charge radii are     1.1199  0.7215  0.6991
  (the norm of the test charge is              1.0000)
       1 -80.8099       2 -80.8099       3 -80.8099       4 -80.6351       5 -81.1491
       6 -81.1018       7 -81.1491       8 -81.1491       9 -82.0653      10 -80.7541
      11 -80.7541      12 -80.7541      13 -79.2170      14 -58.5442
 
 
 
 E-fermi :  -0.9842     XC(G=0):  -4.6064     alpha+bet : -4.6445


 k-point     1 :       0.0625    0.0625    0.0000
  band No.  band energies     occupation 
      1     -24.8651      2.00000
      2     -10.5901      2.00000
      3      -8.1127      2.00000
      4      -7.5956      2.00000
      5      -7.5949      2.00000
      6      -6.7594      2.00000
      7      -5.6930      2.00000
      8      -5.4583      2.00000
      9      -5.4408      2.00000
     10      -5.4341      2.00000
     11      -5.4212      2.00000
     12      -5.2940      2.00000
     13      -5.2864      2.00000
     14      -5.1794      2.00000
     15      -5.1428      2.00000
     16      -5.1413      2.00000
     17      -5.0106      2.00000
     18      -4.9128      2.00000
     19      -4.9050      2.00000
     20      -4.8715      2.00000
     21      -4.2662      2.00000
     22      -4.2631      2.00000
     23      -3.8763      2.00000
     24      -3.6389      2.00000
     25      -3.6368      2.00000
     26      -3.5685      2.00000
     27      -3.4252      2.00000
     28      -3.4036      2.00000
     29      -3.3718      2.00000
     30      -3.2970      2.00000
     31      -3.2752      2.00000
     32      -3.1444      2.00000
     33      -3.1349      2.00000
     34      -3.0865      2.00000
     35      -3.0716      2.00000
     36      -3.0545      2.00000
     37      -2.7973      2.00000
     38      -2.5069      2.00000
     39      -2.4817      2.00000
     40      -2.3825      2.00000
     41      -2.3716      2.00000
     42      -2.2343      2.00000
     43      -1.9952      2.00000
     44      -1.9725      2.00000
     45      -1.9644      2.00000
     46      -1.8796      2.00000
     47      -1.8621      2.00000
     48      -1.8047      2.00000
     49      -1.6123      2.00000
     50      -1.6087      2.00000
     51      -1.2720      2.00000
     52      -1.2451      2.00000
     53      -1.2277      2.00000
     54      -1.1771      2.00000
     55      -1.1697      2.00000
     56      -1.1328      1.99997
     57      -1.0953      1.99833
     58      -1.0651      1.97789
     59      -1.0096      1.52682
     60      -0.9904      1.13853
     61      -0.9560      0.42540
     62      -0.8928      0.00969
     63      -0.8836      0.00444
     64      -0.7565      0.00000
     65      -0.7263      0.00000
     66      -0.7262      0.00000
     67      -0.6987      0.00000
     68       0.0261      0.00000
     69       0.5373      0.00000
     70       0.6570      0.00000
     71       1.0822      0.00000
     72       1.6307      0.00000
     73       1.8265      0.00000
     74       1.9122      0.00000
     75       2.2945      0.00000
     76       2.7186      0.00000
     77       2.7729      0.00000
     78       3.0662      0.00000
     79       3.6072      0.00000
     80       3.6310      0.00000

 k-point     2 :       0.1875    0.0625    0.0000
  band No.  band energies     occupation 
      1     -24.8650      2.00000
      2     -10.5878      2.00000
      3      -8.1060      2.00000
      4      -7.5995      2.00000
      5      -7.5954      2.00000
      6      -6.5928      2.00000
      7      -5.5420      2.00000
      8      -5.3682      2.00000
      9      -5.3402      2.00000
     10      -5.3142      2.00000
     11      -5.2999      2.00000
     12      -5.2267      2.00000
     13      -5.1855      2.00000
     14      -5.0845      2.00000
     15      -5.0739      2.00000
     16      -5.0631      2.00000
     17      -4.9389      2.00000
     18      -4.8285      2.00000
     19      -4.7922      2.00000
     20      -4.7333      2.00000
     21      -4.2404      2.00000
     22      -4.2204      2.00000
     23      -3.8654      2.00000
     24      -3.6242      2.00000
     25      -3.6006      2.00000
     26      -3.5629      2.00000
     27      -3.4794      2.00000
     28      -3.4512      2.00000
     29      -3.3744      2.00000
     30      -3.2649      2.00000
     31      -3.2205      2.00000
     32      -3.1986      2.00000
     33      -3.1426      2.00000
     34      -3.1304      2.00000
     35      -3.0674      2.00000
     36      -2.9532      2.00000
     37      -2.8523      2.00000
     38      -2.6753      2.00000
     39      -2.5649      2.00000
     40      -2.4991      2.00000
     41      -2.4085      2.00000
     42      -2.3547      2.00000
     43      -2.1036      2.00000
     44      -2.0475      2.00000
     45      -2.0120      2.00000
     46      -1.9882      2.00000
     47      -1.9174      2.00000
     48      -1.9016      2.00000
     49      -1.7050      2.00000
     50      -1.6475      2.00000
     51      -1.4592      2.00000
     52      -1.4037      2.00000
     53      -1.3346      2.00000
     54      -1.3152      2.00000
     55      -1.2908      2.00000
     56      -1.2502      2.00000
     57      -1.2181      2.00000
     58      -1.1465      2.00000
     59      -1.1228      1.99991
     60      -1.0828      1.99472
     61      -1.0699      1.98459
     62      -1.0426      1.90155
     63      -1.0081      1.50163
     64      -0.9481      0.30746
     65      -0.8732      0.00169
     66      -0.8643      0.00070
     67      -0.8388      0.00004
     68       0.0291      0.00000
     69       0.3532      0.00000
     70       0.5836      0.00000
     71       0.9256      0.00000
     72       1.1963      0.00000
     73       1.6347      0.00000
     74       2.0821      0.00000
     75       2.3079      0.00000
     76       2.5290      0.00000
     77       3.0855      0.00000
     78       3.4526      0.00000
     79       3.7642      0.00000
     80       3.9158      0.00000

 k-point     3 :       0.3125    0.0625    0.0000
  band No.  band energies     occupation 
      1     -24.8649      2.00000
      2     -10.5840      2.00000
      3      -8.0955      2.00000
      4      -7.6062      2.00000
      5      -7.5962      2.00000
      6      -6.2276      2.00000
      7      -5.2754      2.00000
      8      -5.2351      2.00000
      9      -5.1299      2.00000
     10      -5.1188      2.00000
     11      -5.0573      2.00000
     12      -5.0095      2.00000
     13      -4.9695      2.00000
     14      -4.9069      2.00000
     15      -4.8857      2.00000
     16      -4.8526      2.00000
     17      -4.7703      2.00000
     18      -4.6726      2.00000
     19      -4.5226      2.00000
     20      -4.4378      2.00000
     21      -4.1908      2.00000
     22      -4.1426      2.00000
     23      -3.8741      2.00000
     24      -3.7398      2.00000
     25      -3.6612      2.00000
     26      -3.5811      2.00000
     27      -3.5339      2.00000
     28      -3.4899      2.00000
     29      -3.3831      2.00000
     30      -3.3344      2.00000
     31      -3.2308      2.00000
     32      -3.1551      2.00000
     33      -3.0881      2.00000
     34      -3.0403      2.00000
     35      -3.0203      2.00000
     36      -2.9773      2.00000
     37      -2.8882      2.00000
     38      -2.8206      2.00000
     39      -2.7879      2.00000
     40      -2.7214      2.00000
     41      -2.6198      2.00000
     42      -2.4704      2.00000
     43      -2.2831      2.00000
     44      -2.2634      2.00000
     45      -2.2257      2.00000
     46      -2.1277      2.00000
     47      -2.0764      2.00000
     48      -2.0434      2.00000
     49      -2.0260      2.00000
     50      -1.9663      2.00000
     51      -1.9030      2.00000
     52      -1.7622      2.00000
     53      -1.6711      2.00000
     54      -1.5957      2.00000
     55      -1.5257      2.00000
     56      -1.4744      2.00000
     57      -1.4359      2.00000
     58      -1.3972      2.00000
     59      -1.3768      2.00000
     60      -1.2682      2.00000
     61      -1.2288      2.00000
     62      -1.1297      1.99996
     63      -1.0892      1.99702
     64      -1.0418      1.89657
     65      -0.9725      0.74080
     66      -0.9133      0.04489
     67      -0.8841      0.00463
     68      -0.7726      0.00000
     69      -0.0186      0.00000
     70       0.6347      0.00000
     71       0.9376      0.00000
     72       1.2946      0.00000
     73       1.7195      0.00000
     74       2.1068      0.00000
     75       2.4520      0.00000
     76       2.6553      0.00000
     77       3.1572      0.00000
     78       3.5469      0.00000
     79       4.1194      0.00000
     80       4.3704      0.00000

 k-point     4 :       0.4375    0.0625    0.0000
  band No.  band energies     occupation 
      1     -24.8649      2.00000
      2     -10.5808      2.00000
      3      -8.0876      2.00000
      4      -7.6119      2.00000
      5      -7.5970      2.00000
      6      -5.7498      2.00000
      7      -5.2633      2.00000
      8      -5.0245      2.00000
      9      -4.9448      2.00000
     10      -4.9112      2.00000
     11      -4.8316      2.00000
     12      -4.7448      2.00000
     13      -4.6666      2.00000
     14      -4.6522      2.00000
     15      -4.6301      2.00000
     16      -4.5748      2.00000
     17      -4.4849      2.00000
     18      -4.4592      2.00000
     19      -4.2447      2.00000
     20      -4.2131      2.00000
     21      -4.0683      2.00000
     22      -4.0349      2.00000
     23      -3.9582      2.00000
     24      -3.8847      2.00000
     25      -3.8007      2.00000
     26      -3.6376      2.00000
     27      -3.5899      2.00000
     28      -3.5144      2.00000
     29      -3.4452      2.00000
     30      -3.4157      2.00000
     31      -3.3235      2.00000
     32      -3.2727      2.00000
     33      -3.2272      2.00000
     34      -3.1344      2.00000
     35      -3.0656      2.00000
     36      -2.9966      2.00000
     37      -2.9112      2.00000
     38      -2.8603      2.00000
     39      -2.8011      2.00000
     40      -2.7674      2.00000
     41      -2.6991      2.00000
     42      -2.6540      2.00000
     43      -2.5784      2.00000
     44      -2.5483      2.00000
     45      -2.4756      2.00000
     46      -2.4194      2.00000
     47      -2.3453      2.00000
     48      -2.2707      2.00000
     49      -2.2139      2.00000
     50      -2.1861      2.00000
     51      -2.1395      2.00000
     52      -2.0635      2.00000
     53      -1.9308      2.00000
     54      -1.8667      2.00000
     55      -1.8483      2.00000
     56      -1.8068      2.00000
     57      -1.6927      2.00000
     58      -1.6072      2.00000
     59      -1.5286      2.00000
     60      -1.4656      2.00000
     61      -1.4102      2.00000
     62      -1.2507      2.00000
     63      -1.1484      2.00000
     64      -1.0917      1.99765
     65      -1.0216      1.71002
     66      -0.9735      0.76305
     67      -0.8961      0.01273
     68      -0.8757      0.00214
     69      -0.2796      0.00000
     70       0.7408      0.00000
     71       1.0927      0.00000
     72       1.3498      0.00000
     73       1.9526      0.00000
     74       2.0726      0.00000
     75       2.4914      0.00000
     76       2.6920      0.00000
     77       3.2692      0.00000
     78       3.6660      0.00000
     79       4.2809      0.00000
     80       4.6606      0.00000

 k-point     5 :      -0.4375    0.0625    0.0000
  band No.  band energies     occupation 
      1     -24.8649      2.00000
      2     -10.5801      2.00000
      3      -8.0858      2.00000
      4      -7.6131      2.00000
      5      -7.5973      2.00000
      6      -5.5283      2.00000
      7      -5.3566      2.00000
      8      -4.9672      2.00000
      9      -4.8995      2.00000
     10      -4.8552      2.00000
     11      -4.7700      2.00000
     12      -4.6877      2.00000
     13      -4.6152      2.00000
     14      -4.5549      2.00000
     15      -4.5236      2.00000
     16      -4.4377      2.00000
     17      -4.3705      2.00000
     18      -4.3386      2.00000
     19      -4.2345      2.00000
     20      -4.2016      2.00000
     21      -4.1274      2.00000
     22      -3.9699      2.00000
     23      -3.9554      2.00000
     24      -3.8068      2.00000
     25      -3.7580      2.00000
     26      -3.7050      2.00000
     27      -3.6744      2.00000
     28      -3.6357      2.00000
     29      -3.4744      2.00000
     30      -3.4560      2.00000
     31      -3.4065      2.00000
     32      -3.2983      2.00000
     33      -3.2426      2.00000
     34      -3.0769      2.00000
     35      -3.0214      2.00000
     36      -2.9965      2.00000
     37      -2.9040      2.00000
     38      -2.8864      2.00000
     39      -2.8616      2.00000
     40      -2.8289      2.00000
     41      -2.7959      2.00000
     42      -2.7569      2.00000
     43      -2.7160      2.00000
     44      -2.6467      2.00000
     45      -2.5704      2.00000
     46      -2.4774      2.00000
     47      -2.3079      2.00000
     48      -2.3016      2.00000
     49      -2.2253      2.00000
     50      -2.1988      2.00000
     51      -2.1310      2.00000
     52      -2.0692      2.00000
     53      -2.0109      2.00000
     54      -1.9527      2.00000
     55      -1.9341      2.00000
     56      -1.8859      2.00000
     57      -1.8376      2.00000
     58      -1.7149      2.00000
     59      -1.5530      2.00000
     60      -1.5063      2.00000
     61      -1.4672      2.00000
     62      -1.2183      2.00000
     63      -1.1556      2.00000
     64      -1.0922      1.99775
     65      -1.0419      1.89750
     66      -0.9980      1.30422
     67      -0.9151      0.05070
     68      -0.8735      0.00174
     69      -0.2863      0.00000
     70       0.7731      0.00000
     71       1.1203      0.00000
     72       1.3523      0.00000
     73       1.9058      0.00000
     74       2.2586      0.00000
     75       2.4544      0.00000
     76       2.5776      0.00000
     77       3.4458      0.00000
     78       3.7655      0.00000
     79       4.0780      0.00000
     80       4.8369      0.00000

 k-point     6 :      -0.3125    0.0625    0.0000
  band No.  band energies     occupation 
      1     -24.8649      2.00000
      2     -10.5822      2.00000
      3      -8.0909      2.00000
      4      -7.6094      2.00000
      5      -7.5967      2.00000
      6      -5.9932      2.00000
      7      -5.2393      2.00000
      8      -5.1151      2.00000
      9      -5.0241      2.00000
     10      -5.0180      2.00000
     11      -4.9332      2.00000
     12      -4.8472      2.00000
     13      -4.8275      2.00000
     14      -4.7825      2.00000
     15      -4.7473      2.00000
     16      -4.7260      2.00000
     17      -4.6416      2.00000
     18      -4.5708      2.00000
     19      -4.3584      2.00000
     20      -4.2840      2.00000
     21      -4.1413      2.00000
     22      -4.1028      2.00000
     23      -3.8931      2.00000
     24      -3.8516      2.00000
     25      -3.7573      2.00000
     26      -3.6034      2.00000
     27      -3.5363      2.00000
     28      -3.4784      2.00000
     29      -3.4001      2.00000
     30      -3.3321      2.00000
     31      -3.3189      2.00000
     32      -3.1795      2.00000
     33      -3.1329      2.00000
     34      -3.1158      2.00000
     35      -3.0144      2.00000
     36      -2.9523      2.00000
     37      -2.9159      2.00000
     38      -2.8940      2.00000
     39      -2.8495      2.00000
     40      -2.7330      2.00000
     41      -2.6357      2.00000
     42      -2.5221      2.00000
     43      -2.4642      2.00000
     44      -2.3614      2.00000
     45      -2.3355      2.00000
     46      -2.3052      2.00000
     47      -2.2645      2.00000
     48      -2.1852      2.00000
     49      -2.1513      2.00000
     50      -2.0775      2.00000
     51      -2.0421      2.00000
     52      -2.0058      2.00000
     53      -1.7905      2.00000
     54      -1.7314      2.00000
     55      -1.6942      2.00000
     56      -1.6431      2.00000
     57      -1.5917      2.00000
     58      -1.4939      2.00000
     59      -1.4386      2.00000
     60      -1.4144      2.00000
     61      -1.2768      2.00000
     62      -1.2296      2.00000
     63      -1.1335      1.99998
     64      -1.0913      1.99756
     65      -1.0108      1.54756
     66      -0.9658      0.60316
     67      -0.8835      0.00438
     68      -0.8296      0.00001
     69      -0.2167      0.00000
     70       0.6892      0.00000
     71       1.0345      0.00000
     72       1.3338      0.00000
     73       1.8780      0.00000
     74       2.0304      0.00000
     75       2.4770      0.00000
     76       2.7831      0.00000
     77       3.1053      0.00000
     78       3.6002      0.00000
     79       4.3511      0.00000
     80       4.4012      0.00000

 k-point     7 :      -0.1875    0.0625    0.0000
  band No.  band energies     occupation 
      1     -24.8650      2.00000
      2     -10.5860      2.00000
      3      -8.1008      2.00000
      4      -7.6028      2.00000
      5      -7.5958      2.00000
      6      -6.4318      2.00000
      7      -5.4060      2.00000
      8      -5.3119      2.00000
      9      -5.2408      2.00000
     10      -5.2054      2.00000
     11      -5.1797      2.00000
     12      -5.1607      2.00000
     13      -5.0887      2.00000
     14      -5.0047      2.00000
     15      -4.9968      2.00000
     16      -4.9725      2.00000
     17      -4.8674      2.00000
     18      -4.7593      2.00000
     19      -4.6742      2.00000
     20      -4.5993      2.00000
     21      -4.2183      2.00000
     22      -4.1829      2.00000
     23      -3.8647      2.00000
     24      -3.6533      2.00000
     25      -3.5919      2.00000
     26      -3.5676      2.00000
     27      -3.5343      2.00000
     28      -3.4575      2.00000
     29      -3.4216      2.00000
     30      -3.2731      2.00000
     31      -3.1892      2.00000
     32      -3.1608      2.00000
     33      -3.1552      2.00000
     34      -3.1086      2.00000
     35      -3.0396      2.00000
     36      -2.9316      2.00000
     37      -2.8504      2.00000
     38      -2.7860      2.00000
     39      -2.6733      2.00000
     40      -2.6250      2.00000
     41      -2.4793      2.00000
     42      -2.4283      2.00000
     43      -2.1958      2.00000
     44      -2.1322      2.00000
     45      -2.1060      2.00000
     46      -2.0491      2.00000
     47      -1.9836      2.00000
     48      -1.9661      2.00000
     49      -1.8368      2.00000
     50      -1.7225      2.00000
     51      -1.6715      2.00000
     52      -1.6416      2.00000
     53      -1.4898      2.00000
     54      -1.4295      2.00000
     55      -1.3805      2.00000
     56      -1.3548      2.00000
     57      -1.3285      2.00000
     58      -1.2857      2.00000
     59      -1.2161      2.00000
     60      -1.1947      2.00000
     61      -1.1105      1.99965
     62      -1.0935      1.99800
     63      -1.0562      1.95819
     64      -1.0263      1.76655
     65      -0.9437      0.25153
     66      -0.8814      0.00363
     67      -0.8606      0.00047
     68      -0.4322      0.00000
     69       0.2618      0.00000
     70       0.6098      0.00000
     71       0.8169      0.00000
     72       1.2396      0.00000
     73       1.6341      0.00000
     74       2.1363      0.00000
     75       2.4192      0.00000
     76       2.5010      0.00000
     77       3.1839      0.00000
     78       3.5425      0.00000
     79       3.9181      0.00000
     80       4.1890      0.00000

 k-point     8 :      -0.0625    0.0625    0.0000
  band No.  band energies     occupation 
      1     -24.8650      2.00000
      2     -10.5893      2.00000
      3      -8.1103      2.00000
      4      -7.5969      2.00000
      5      -7.5950      2.00000
      6      -6.7033      2.00000
      7      -5.6413      2.00000
      8      -5.4133      2.00000
      9      -5.4101      2.00000
     10      -5.4039      2.00000
     11      -5.3792      2.00000
     12      -5.2704      2.00000
     13      -5.2516      2.00000
     14      -5.1479      2.00000
     15      -5.1203      2.00000
     16      -5.1160      2.00000
     17      -4.9867      2.00000
     18      -4.8816      2.00000
     19      -4.8676      2.00000
     20      -4.8270      2.00000
     21      -4.2571      2.00000
     22      -4.2483      2.00000
     23      -3.8715      2.00000
     24      -3.6313      2.00000
     25      -3.6238      2.00000
     26      -3.5610      2.00000
     27      -3.4417      2.00000
     28      -3.4292      2.00000
     29      -3.3358      2.00000
     30      -3.3194      2.00000
     31      -3.2492      2.00000
     32      -3.1718      2.00000
     33      -3.1352      2.00000
     34      -3.1073      2.00000
     35      -3.0734      2.00000
     36      -3.0214      2.00000
     37      -2.8124      2.00000
     38      -2.5704      2.00000
     39      -2.5051      2.00000
     40      -2.4194      2.00000
     41      -2.3862      2.00000
     42      -2.2769      2.00000
     43      -2.0327      2.00000
     44      -2.0005      2.00000
     45      -1.9676      2.00000
     46      -1.9252      2.00000
     47      -1.8785      2.00000
     48      -1.8387      2.00000
     49      -1.6320      2.00000
     50      -1.6203      2.00000
     51      -1.3303      2.00000
     52      -1.2727      2.00000
     53      -1.2641      2.00000
     54      -1.2209      2.00000
     55      -1.2068      2.00000
     56      -1.1525      2.00000
     57      -1.1170      1.99983
     58      -1.1116      1.99969
     59      -1.0692      1.98377
     60      -1.0367      1.86276
     61      -1.0184      1.66643
     62      -0.9434      0.24893
     63      -0.9282      0.11315
     64      -0.8426      0.00006
     65      -0.7917      0.00000
     66      -0.7840      0.00000
     67      -0.7658      0.00000
     68       0.1309      0.00000
     69       0.4663      0.00000
     70       0.5918      0.00000
     71       1.0694      0.00000
     72       1.3528      0.00000
     73       1.7289      0.00000
     74       1.9843      0.00000
     75       2.2416      0.00000
     76       2.6312      0.00000
     77       2.9169      0.00000
     78       3.2494      0.00000
     79       3.6602      0.00000
     80       3.7555      0.00000

 k-point     9 :       0.1875    0.1875    0.0000
  band No.  band energies     occupation 
      1     -24.8650      2.00000
      2     -10.5872      2.00000
      3      -8.1041      2.00000
      4      -7.6008      2.00000
      5      -7.5953      2.00000
      6      -6.5386      2.00000
      7      -5.4954      2.00000
      8      -5.3588      2.00000
      9      -5.2895      2.00000
     10      -5.2734      2.00000
     11      -5.2655      2.00000
     12      -5.2154      2.00000
     13      -5.1412      2.00000
     14      -5.0572      2.00000
     15      -5.0507      2.00000
     16      -5.0354      2.00000
     17      -4.9153      2.00000
     18      -4.8148      2.00000
     19      -4.7310      2.00000
     20      -4.6992      2.00000
     21      -4.2337      2.00000
     22      -4.2063      2.00000
     23      -3.8649      2.00000
     24      -3.6270      2.00000
     25      -3.5892      2.00000
     26      -3.5703      2.00000
     27      -3.4992      2.00000
     28      -3.4513      2.00000
     29      -3.3939      2.00000
     30      -3.2382      2.00000
     31      -3.2256      2.00000
     32      -3.1882      2.00000
     33      -3.1563      2.00000
     34      -3.1380      2.00000
     35      -3.0471      2.00000
     36      -2.9212      2.00000
     37      -2.8786      2.00000
     38      -2.7171      2.00000
     39      -2.5971      2.00000
     40      -2.5427      2.00000
     41      -2.4121      2.00000
     42      -2.3994      2.00000
     43      -2.1380      2.00000
     44      -2.0538      2.00000
     45      -2.0467      2.00000
     46      -2.0165      2.00000
     47      -1.9400      2.00000
     48      -1.9345      2.00000
     49      -1.7600      2.00000
     50      -1.6400      2.00000
     51      -1.5335      2.00000
     52      -1.4985      2.00000
     53      -1.4103      2.00000
     54      -1.3421      2.00000
     55      -1.3332      2.00000
     56      -1.2731      2.00000
     57      -1.2570      2.00000
     58      -1.2033      2.00000
     59      -1.1349      1.99998
     60      -1.1100      1.99963
     61      -1.0747      1.98956
     62      -1.0446      1.91265
     63      -1.0442      1.91026
     64      -0.9727      0.74417
     65      -0.8878      0.00637
     66      -0.8746      0.00194
     67      -0.8451      0.00008
     68      -0.3066      0.00000
     69       0.3246      0.00000
     70       0.7679      0.00000
     71       0.8682      0.00000
     72       1.2611      0.00000
     73       1.7663      0.00000
     74       1.8429      0.00000
     75       2.3356      0.00000
     76       2.5653      0.00000
     77       2.9821      0.00000
     78       3.5419      0.00000
     79       3.8159      0.00000
     80       4.1175      0.00000

 k-point    10 :       0.3125    0.1875    0.0000
  band No.  band energies     occupation 
      1     -24.8649      2.00000
      2     -10.5844      2.00000
      3      -8.0966      2.00000
      4      -7.6049      2.00000
      5      -7.5966      2.00000
      6      -6.2759      2.00000
      7      -5.2840      2.00000
      8      -5.2290      2.00000
      9      -5.1837      2.00000
     10      -5.1271      2.00000
     11      -5.0738      2.00000
     12      -5.0474      2.00000
     13      -5.0323      2.00000
     14      -4.9343      2.00000
     15      -4.9100      2.00000
     16      -4.8698      2.00000
     17      -4.7930      2.00000
     18      -4.6631      2.00000
     19      -4.6065      2.00000
     20      -4.4611      2.00000
     21      -4.1947      2.00000
     22      -4.1539      2.00000
     23      -3.8677      2.00000
     24      -3.7142      2.00000
     25      -3.6431      2.00000
     26      -3.5873      2.00000
     27      -3.5333      2.00000
     28      -3.5065      2.00000
     29      -3.4020      2.00000
     30      -3.3214      2.00000
     31      -3.1942      2.00000
     32      -3.1651      2.00000
     33      -3.1008      2.00000
     34      -3.0569      2.00000
     35      -3.0165      2.00000
     36      -2.9863      2.00000
     37      -2.8760      2.00000
     38      -2.7966      2.00000
     39      -2.7585      2.00000
     40      -2.7302      2.00000
     41      -2.5780      2.00000
     42      -2.4710      2.00000
     43      -2.2617      2.00000
     44      -2.2331      2.00000
     45      -2.1878      2.00000
     46      -2.1300      2.00000
     47      -2.0605      2.00000
     48      -1.9858      2.00000
     49      -1.9482      2.00000
     50      -1.8955      2.00000
     51      -1.8476      2.00000
     52      -1.7906      2.00000
     53      -1.6957      2.00000
     54      -1.5483      2.00000
     55      -1.4963      2.00000
     56      -1.4746      2.00000
     57      -1.4098      2.00000
     58      -1.3776      2.00000
     59      -1.3173      2.00000
     60      -1.2153      2.00000
     61      -1.1648      2.00000
     62      -1.1463      2.00000
     63      -1.1049      1.99936
     64      -1.0440      1.90914
     65      -0.9843      1.00113
     66      -0.9343      0.15839
     67      -0.8181      0.00000
     68      -0.3970      0.00000
     69       0.1078      0.00000
     70       0.2959      0.00000
     71       0.7397      0.00000
     72       1.1221      0.00000
     73       1.7430      0.00000
     74       2.1169      0.00000
     75       2.6082      0.00000
     76       2.7853      0.00000
     77       3.2741      0.00000
     78       3.7485      0.00000
     79       4.0653      0.00000
     80       4.1857      0.00000

 k-point    11 :       0.4375    0.1875    0.0000
  band No.  band energies     occupation 
      1     -24.8649      2.00000
      2     -10.5812      2.00000
      3      -8.0887      2.00000
      4      -7.6090      2.00000
      5      -7.5989      2.00000
      6      -5.8494      2.00000
      7      -5.1100      2.00000
      8      -5.0395      2.00000
      9      -4.9631      2.00000
     10      -4.9244      2.00000
     11      -4.8662      2.00000
     12      -4.8360      2.00000
     13      -4.7451      2.00000
     14      -4.7206      2.00000
     15      -4.6703      2.00000
     16      -4.6397      2.00000
     17      -4.5327      2.00000
     18      -4.4309      2.00000
     19      -4.3633      2.00000
     20      -4.2662      2.00000
     21      -4.0939      2.00000
     22      -4.0421      2.00000
     23      -3.9085      2.00000
     24      -3.8758      2.00000
     25      -3.8215      2.00000
     26      -3.6943      2.00000
     27      -3.5907      2.00000
     28      -3.5234      2.00000
     29      -3.4325      2.00000
     30      -3.3699      2.00000
     31      -3.3559      2.00000
     32      -3.2212      2.00000
     33      -3.2051      2.00000
     34      -3.1822      2.00000
     35      -3.1106      2.00000
     36      -3.0664      2.00000
     37      -2.9789      2.00000
     38      -2.8404      2.00000
     39      -2.7974      2.00000
     40      -2.7471      2.00000
     41      -2.6937      2.00000
     42      -2.5970      2.00000
     43      -2.5045      2.00000
     44      -2.4311      2.00000
     45      -2.4099      2.00000
     46      -2.3595      2.00000
     47      -2.3306      2.00000
     48      -2.2652      2.00000
     49      -2.2418      2.00000
     50      -2.1861      2.00000
     51      -2.0812      2.00000
     52      -1.9670      2.00000
     53      -1.9252      2.00000
     54      -1.8364      2.00000
     55      -1.7329      2.00000
     56      -1.7172      2.00000
     57      -1.5533      2.00000
     58      -1.4997      2.00000
     59      -1.3332      2.00000
     60      -1.2668      2.00000
     61      -1.2602      2.00000
     62      -1.2107      2.00000
     63      -1.1674      2.00000
     64      -1.0964      1.99849
     65      -1.0522      1.94539
     66      -1.0083      1.50531
     67      -0.8139      0.00000
     68      -0.6788      0.00000
     69      -0.2735      0.00000
     70       0.0474      0.00000
     71       0.4289      0.00000
     72       1.2979      0.00000
     73       1.8378      0.00000
     74       2.0884      0.00000
     75       2.8489      0.00000
     76       2.9968      0.00000
     77       3.6025      0.00000
     78       3.9497      0.00000
     79       4.4083      0.00000
     80       4.5162      0.00000

 k-point    12 :      -0.4375    0.1875    0.0000
[...]
      7      -5.0635      2.00000
      8      -4.9894      2.00000
      9      -4.6503      2.00000
     10      -4.6302      2.00000
     11      -4.5582      2.00000
     12      -4.5074      2.00000
     13      -4.4820      2.00000
     14      -4.4442      2.00000
     15      -4.4158      2.00000
     16      -4.3817      2.00000
     17      -4.3572      2.00000
     18      -4.2662      2.00000
     19      -4.2217      2.00000
     20      -4.1741      2.00000
     21      -4.0358      2.00000
     22      -3.9982      2.00000
     23      -3.9697      2.00000
     24      -3.9074      2.00000
     25      -3.8586      2.00000
     26      -3.8232      2.00000
     27      -3.7444      2.00000
     28      -3.7274      2.00000
     29      -3.6983      2.00000
     30      -3.5615      2.00000
     31      -3.4894      2.00000
     32      -3.3966      2.00000
     33      -3.3479      2.00000
     34      -3.3290      2.00000
     35      -3.3174      2.00000
     36      -3.2607      2.00000
     37      -3.2010      2.00000
     38      -3.1097      2.00000
     39      -3.0296      2.00000
     40      -2.9359      2.00000
     41      -2.8900      2.00000
     42      -2.8092      2.00000
     43      -2.7936      2.00000
     44      -2.7446      2.00000
     45      -2.6425      2.00000
     46      -2.4209      2.00000
     47      -2.2961      2.00000
     48      -2.1797      2.00000
     49      -2.1669      2.00000
     50      -2.1160      2.00000
     51      -2.0567      2.00000
     52      -1.9567      2.00000
     53      -1.9341      2.00000
     54      -1.8327      2.00000
     55      -1.7900      2.00000
     56      -1.6346      2.00000
     57      -1.5881      2.00000
     58      -1.4169      2.00000
     59      -1.3620      2.00000
     60      -1.3326      2.00000
     61      -1.3126      2.00000
     62      -1.2746      2.00000
     63      -1.2645      2.00000
     64      -1.2025      2.00000
     65      -1.1451      1.99999
     66      -1.0980      1.99871
     67      -1.0449      1.91404
     68      -0.9997      1.33834
     69      -0.6516      0.00000
     70      -0.4486      0.00000
     71       0.2126      0.00000
     72       1.4720      0.00000
     73       1.6262      0.00000
     74       2.4547      0.00000
     75       2.5565      0.00000
     76       2.9894      0.00000
     77       4.2426      0.00000
     78       4.5380      0.00000
     79       5.0596      0.00000
     80       5.3180      0.00000

 k-point    19 :       0.4375    0.4375    0.0000
  band No.  band energies     occupation 
      1     -24.8649      2.00000
      2     -10.5804      2.00000
      3      -8.0867      2.00000
      4      -7.6129      2.00000
      5      -7.5968      2.00000
      6      -5.6527      2.00000
      7      -5.3196      2.00000
      8      -5.0081      2.00000
      9      -4.9236      2.00000
     10      -4.8935      2.00000
     11      -4.8050      2.00000
     12      -4.7103      2.00000
     13      -4.6400      2.00000
     14      -4.6065      2.00000
     15      -4.5815      2.00000
     16      -4.4993      2.00000
     17      -4.4304      2.00000
     18      -4.4164      2.00000
     19      -4.2173      2.00000
     20      -4.2135      2.00000
     21      -4.0864      2.00000
     22      -4.0022      2.00000
     23      -3.9531      2.00000
     24      -3.8520      2.00000
     25      -3.7793      2.00000
     26      -3.6543      2.00000
     27      -3.6258      2.00000
     28      -3.5646      2.00000
     29      -3.4485      2.00000
     30      -3.4462      2.00000
     31      -3.3488      2.00000
     32      -3.2836      2.00000
     33      -3.2321      2.00000
     34      -3.0962      2.00000
     35      -3.0323      2.00000
     36      -2.9719      2.00000
     37      -2.8916      2.00000
     38      -2.8391      2.00000
     39      -2.8142      2.00000
     40      -2.8070      2.00000
     41      -2.7497      2.00000
     42      -2.6863      2.00000
     43      -2.6292      2.00000
     44      -2.5790      2.00000
     45      -2.5573      2.00000
     46      -2.4909      2.00000
     47      -2.3207      2.00000
     48      -2.2711      2.00000
     49      -2.2439      2.00000
     50      -2.1806      2.00000
     51      -2.1750      2.00000
     52      -2.0745      2.00000
     53      -1.9705      2.00000
     54      -1.9297      2.00000
     55      -1.9048      2.00000
     56      -1.8785      2.00000
     57      -1.8050      2.00000
     58      -1.7050      2.00000
     59      -1.5448      2.00000
     60      -1.4951      2.00000
     61      -1.4800      2.00000
     62      -1.2337      2.00000
     63      -1.1335      1.99998
     64      -1.0804      1.99347
     65      -1.0333      1.83537
     66      -0.9958      1.25618
     67      -0.8933      0.01012
     68      -0.8541      0.00023
     69      -0.2965      0.00000
     70       1.0797      0.00000
     71       1.0937      0.00000
     72       1.4638      0.00000
     73       1.8542      0.00000
     74       2.0245      0.00000
     75       2.3962      0.00000
     76       2.7460      0.00000
     77       3.1743      0.00000
     78       3.5869      0.00000
     79       4.2917      0.00000
     80       4.8041      0.00000

 k-point    20 :      -0.4375    0.4375    0.0000
  band No.  band energies     occupation 
      1     -24.8648      2.00000
      2     -10.5797      2.00000
      3      -8.0850      2.00000
      4      -7.6124      2.00000
      5      -7.5986      2.00000
      6      -5.3976      2.00000
      7      -5.3613      2.00000
      8      -4.9202      2.00000
      9      -4.8614      2.00000
     10      -4.7948      2.00000
     11      -4.7312      2.00000
     12      -4.6690      2.00000
     13      -4.5945      2.00000
     14      -4.5000      2.00000
     15      -4.4716      2.00000
     16      -4.3980      2.00000
     17      -4.3423      2.00000
     18      -4.2660      2.00000
     19      -4.2234      2.00000
     20      -4.1985      2.00000
     21      -4.1521      2.00000
     22      -4.0030      2.00000
     23      -3.9346      2.00000
     24      -3.8633      2.00000
     25      -3.7578      2.00000
     26      -3.7508      2.00000
     27      -3.7037      2.00000
     28      -3.6530      2.00000
     29      -3.5318      2.00000
     30      -3.4817      2.00000
     31      -3.4185      2.00000
     32      -3.3208      2.00000
     33      -3.2644      2.00000
     34      -3.1296      2.00000
     35      -3.0681      2.00000
     36      -3.0507      2.00000
     37      -3.0023      2.00000
     38      -2.9577      2.00000
     39      -2.9302      2.00000
     40      -2.8751      2.00000
     41      -2.8472      2.00000
     42      -2.7908      2.00000
     43      -2.7670      2.00000
     44      -2.6723      2.00000
     45      -2.5648      2.00000
     46      -2.4075      2.00000
     47      -2.3353      2.00000
     48      -2.3019      2.00000
     49      -2.2069      2.00000
     50      -2.1474      2.00000
     51      -2.1037      2.00000
     52      -2.0646      2.00000
     53      -1.9787      2.00000
     54      -1.9168      2.00000
     55      -1.9003      2.00000
     56      -1.8205      2.00000
     57      -1.7883      2.00000
     58      -1.6560      2.00000
     59      -1.5481      2.00000
     60      -1.4968      2.00000
     61      -1.4348      2.00000
     62      -1.2220      2.00000
     63      -1.1995      2.00000
     64      -1.1201      1.99988
     65      -1.0538      1.95085
     66      -0.9714      0.71731
     67      -0.9684      0.65400
     68      -0.9281      0.11269
     69      -0.2752      0.00000
     70       0.2916      0.00000
     71       0.9733      0.00000
     72       1.1813      0.00000
     73       2.0044      0.00000
     74       2.2667      0.00000
     75       2.4299      0.00000
     76       2.9965      0.00000
     77       3.5842      0.00000
     78       3.8764      0.00000
     79       4.2343      0.00000
     80       4.8272      0.00000


--------------------------------------------------------------------------------------------------------


 soft charge-density along one line, spin component           1
         0         1         2         3         4         5         6         7         8         9
 total charge-density along one line
 
 pseudopotential strength for first ion, spin component:           1
 -7.132  -0.002  -0.005  -0.012  -0.001  -7.161  -0.002  -0.005
 -0.002  -7.019  -0.000   0.001  -0.010  -0.002  -7.053   0.000
 -0.005  -0.000  -7.009  -0.000  -0.003  -0.005   0.000  -7.043
 -0.012   0.001  -0.000  -7.018  -0.002  -0.012   0.001   0.000
 -0.001  -0.010  -0.003  -0.002  -7.130  -0.001  -0.010  -0.003
 -7.161  -0.002  -0.005  -0.012  -0.001  -7.165  -0.002  -0.005
 -0.002  -7.053   0.000   0.001  -0.010  -0.002  -7.062   0.000
 -0.005   0.000  -7.043   0.000  -0.003  -0.005   0.000  -7.053
 -0.012   0.001   0.000  -7.052  -0.002  -0.011   0.001   0.000
 -0.001  -0.010  -0.003  -0.002  -7.159  -0.001  -0.009  -0.003
 -0.001   0.000  -0.028   0.001  -0.001  -0.001   0.000  -0.027
 -0.002   0.001  -0.048   0.001  -0.001  -0.002   0.001  -0.046
  0.000  -0.015   0.000   0.000   0.000   0.000  -0.014   0.000
  0.000   0.000  -0.018   0.000   0.000  -0.000   0.000  -0.017
  0.000   0.000   0.000  -0.015   0.000   0.000  -0.000   0.000
  0.000  -0.016   0.000  -0.000   0.000   0.000  -0.016   0.000
 -0.000   0.000  -0.020   0.000  -0.000  -0.000   0.000  -0.019
  0.000  -0.000   0.000  -0.016   0.000   0.000  -0.000   0.000
 total augmentation occupancy for first ion, spin component:           1
  2.188  -0.007  -0.066  -0.203  -0.041  -0.972  -0.000   0.040   0.063   0.027  -0.024   0.001  -0.000   0.004  -0.020   0.000
 -0.007   2.678   0.013  -0.029  -0.195   0.000  -0.989  -0.009   0.011   0.069  -0.014   0.004  -0.139  -0.002  -0.006  -0.010
 -0.066   0.013   2.676   0.022  -0.038   0.041  -0.010  -1.176  -0.017   0.024   0.678  -0.190  -0.003  -0.126  -0.005  -0.000
 -0.203  -0.029   0.022   2.644  -0.007   0.069   0.011  -0.016  -0.976   0.000  -0.025   0.006  -0.006  -0.003  -0.147   0.000
 -0.041  -0.195  -0.038  -0.007   2.235   0.027   0.063   0.023  -0.000  -1.003  -0.014   0.001  -0.020   0.002  -0.000   0.003
 -0.972   0.000   0.041   0.069   0.027   1.474   0.004  -0.028   0.024  -0.018   0.023  -0.005  -0.002  -0.000   0.025   0.000
 -0.000  -0.989  -0.010   0.011   0.063   0.004   1.179   0.008   0.000   0.019   0.009  -0.001   0.158   0.002   0.006  -0.014
  0.040  -0.009  -1.176  -0.016   0.023  -0.028   0.008   1.495   0.014  -0.016  -0.451   0.059   0.003   0.214   0.006  -0.000
  0.063   0.011  -0.017  -0.976  -0.000   0.024   0.000   0.014   1.179   0.004   0.016  -0.002   0.006   0.003   0.164  -0.000
  0.027   0.069   0.024   0.000  -1.003  -0.018   0.019  -0.016   0.004   1.494   0.013  -0.003   0.028  -0.000  -0.002  -0.003
 -0.024  -0.014   0.678  -0.025  -0.014   0.023   0.009  -0.451   0.016   0.013   1.958  -0.331  -0.002   0.185  -0.003   0.000
  0.001   0.004  -0.190   0.006   0.001  -0.005  -0.001   0.059  -0.002  -0.003  -0.331   0.063   0.000  -0.040   0.000  -0.000
 -0.000  -0.139  -0.003  -0.006  -0.020  -0.002   0.158   0.003   0.006   0.028  -0.002   0.000   0.188   0.001   0.001  -0.012
  0.004  -0.002  -0.126  -0.003   0.002  -0.000   0.002   0.214   0.003  -0.000   0.185  -0.040   0.001   0.111   0.001  -0.000
 -0.020  -0.006  -0.005  -0.147  -0.000   0.025   0.006   0.006   0.164  -0.002  -0.003   0.000   0.001   0.001   0.189  -0.000
  0.000  -0.010  -0.000   0.000   0.003   0.000  -0.014  -0.000  -0.000  -0.003   0.000  -0.000  -0.012  -0.000  -0.000   0.001
  0.000   0.000  -0.018   0.001   0.000  -0.000  -0.000  -0.016  -0.000  -0.000  -0.026   0.006  -0.000  -0.009  -0.000  -0.000
  0.003   0.000  -0.000  -0.009   0.000  -0.003  -0.000  -0.000  -0.015   0.000   0.000  -0.000  -0.000  -0.000  -0.012   0.000


------------------------ aborting loop because EDIFF is reached ----------------------------------------


    CHARGE:  cpu time    0.1478: real time    0.1481
    FORLOC:  cpu time    0.0055: real time    0.0055
    FORNL :  cpu time    0.4362: real time    0.4375
    STRESS:  cpu time    0.9482: real time    0.9507
    FORCOR:  cpu time    0.0458: real time    0.0460
    FORHAR:  cpu time    0.0128: real time    0.0128
    MIXING:  cpu time    0.0017: real time    0.0017
    OFIELD:  cpu time    0.0001: real time    0.0002

  FORCE on cell =-STRESS in cart. coord.  units (eV):
  Direction    XX          YY          ZZ          XY          YZ          ZX
  --------------------------------------------------------------------------------------
  Alpha Z   159.29619   159.29619   159.29619
  Ewald   50673.44042 50673.44038-57165.16733    -0.00000    -0.00001    -0.00000
  Hartree 53285.97181 53285.97180-51951.45755     0.00000    -0.00001    -0.00000
  E(xc)    -671.40634  -671.40636  -674.96053     0.00002     0.00000     0.00000
  Local  ************************107002.66679    -0.00010     0.00002     0.00000
  n-local   -65.14022   -98.21575  -100.80420    -8.75259    -1.35890     0.63051
  augment   891.30959   891.30945   907.12513     0.00013    -0.00000    -0.00000
  Kinetic  1829.99254  1815.24736  1823.16438    -3.05537    -4.10678     2.51064
  Fock        0.00000     0.00000     0.00000     0.00000     0.00000     0.00000
  -------------------------------------------------------------------------------------
  Total      -5.56284    -5.56284    -0.13711     0.00000     0.00000     0.00000
  in kB     -13.22498   -13.22498    -0.32597     0.00000     0.00000     0.00000
  external pressure =       -8.93 kB  Pullay stress =        0.00 kB


 VOLUME and BASIS-vectors are now :
 -----------------------------------------------------------------------------
  energy-cutoff  :      450.00
  volume of cell :      673.93
      direct lattice vectors                 reciprocal lattice vectors
     5.625168795  0.000000000  0.000000000     0.177772443 -0.102636968  0.000000000
     2.812584397  4.871539077  0.000000000     0.000000000  0.205273936  0.000000000
     0.000000000  0.000000000 24.592931088     0.000000000  0.000000000  0.040662091

  length of vectors
     5.625168795  5.625168795 24.592931088     0.205273936  0.205273936  0.040662091


 FORCES acting on ions
    electron-ion (+dipol)            ewald-force                    non-local-force                 convergence-correction
 -----------------------------------------------------------------------------------------------
   -.126E+01 -.728E+00 0.202E+04   0.116E+01 0.673E+00 -.202E+04   0.784E-01 0.453E-01 -.257E+01   0.181E-01 0.105E-01 -.897E-01
   0.126E+01 -.728E+00 0.202E+04   -.116E+01 0.673E+00 -.202E+04   -.784E-01 0.453E-01 -.257E+01   -.181E-01 0.105E-01 -.897E-01
   0.216E-06 0.146E+01 0.202E+04   -.279E-10 -.135E+01 -.202E+04   0.524E-17 -.905E-01 -.257E+01   -.382E-07 -.209E-01 -.897E-01
   -.542E-06 -.114E-04 0.204E+04   0.269E-10 0.262E-04 -.204E+04   -.255E-17 0.718E-19 -.218E+01   0.748E-08 0.390E-08 -.108E+00
   -.335E-06 -.300E+00 0.190E+03   0.497E-10 0.587E-01 -.190E+03   -.997E-18 0.233E+00 -.251E+00   -.219E-06 0.802E-03 -.309E-01
   -.516E-06 -.357E-05 0.217E+03   -.502E-10 0.767E-05 -.217E+03   -.158E-17 0.403E-18 0.486E-01   0.979E-08 0.514E-08 -.541E-01
   0.260E+00 0.150E+00 0.190E+03   -.508E-01 -.293E-01 -.190E+03   -.202E+00 -.117E+00 -.251E+00   -.694E-03 -.401E-03 -.309E-01
   -.260E+00 0.150E+00 0.190E+03   0.508E-01 -.293E-01 -.190E+03   0.202E+00 -.117E+00 -.251E+00   0.694E-03 -.401E-03 -.309E-01
   -.236E-06 0.265E-04 -.157E+04   0.399E-11 -.626E-04 0.157E+04   0.145E-17 -.146E-18 -.446E+01   -.556E-08 -.317E-08 0.527E-01
   0.190E-07 -.265E+01 -.164E+04   -.567E-11 0.252E+01 0.163E+04   -.481E-18 0.112E+00 0.280E+01   0.333E-07 0.169E-01 0.466E-01
   -.230E+01 0.133E+01 -.164E+04   0.219E+01 -.126E+01 0.163E+04   0.967E-01 -.558E-01 0.280E+01   0.147E-01 -.847E-02 0.466E-01
   0.230E+01 0.133E+01 -.164E+04   -.219E+01 -.126E+01 0.163E+04   -.967E-01 -.558E-01 0.280E+01   -.147E-01 -.847E-02 0.466E-01
   0.104E-06 0.131E-05 -.154E+04   0.552E-13 -.293E-05 0.160E+04   -.543E-22 -.258E-19 -.599E+02   0.205E-09 0.143E-09 0.802E-01
   -.552E-07 0.314E-05 -.816E+03   0.157E-12 -.745E-05 0.800E+03   0.393E-19 -.571E-19 0.160E+02   0.479E-09 0.280E-09 -.139E-01
 -----------------------------------------------------------------------------------------------
   -.139E-06 -.712E-04 0.508E+02   0.187E-13 -.126E-14 -.909E-12   0.278E-16 0.207E-16 -.505E+02   0.103E-07 -.445E-08 -.265E+00
 
 
 POSITION                                       TOTAL-FORCE (eV/Angst)
 -----------------------------------------------------------------------------------
      1.40142      0.80911      9.95218        -0.000243     -0.000140     -0.001467
      4.22375      0.80911      9.95218         0.000243     -0.000140     -0.001467
      2.81258      3.25332      9.95218         0.000000      0.000280     -0.001467
      5.62517      3.24769      9.91267         0.000000      0.000000      0.014269
      5.62517      1.61687     12.25945        -0.000000     -0.007190     -0.007647
      2.81258      1.62385     12.21846         0.000000      0.000000      0.008904
      7.03750      4.06310     12.25945         0.006226      0.003595     -0.007647
      4.21283      4.06310     12.25945        -0.006226      0.003595     -0.007647
      0.00000      0.00000     14.66793         0.000000      0.000000     -0.016049
      5.62517      4.87129     14.51297         0.000000      0.001221      0.000223
      7.03124      2.43590     14.51297         0.001057     -0.000611      0.000223
      4.21910      2.43590     14.51297        -0.001057     -0.000611      0.000223
      0.00000      0.00000     17.69160         0.000000      0.000000      0.011432
      0.00000      0.00000     16.52866         0.000000      0.000000      0.008116
 -----------------------------------------------------------------------------------
    total drift:                               -0.000000     -0.000071     -0.001647


--------------------------------------------------------------------------------------------------------



  FREE ENERGIE OF THE ION-ELECTRON SYSTEM (eV)
  ---------------------------------------------------
  free  energy   TOTEN  =       -67.25027181 eV

  energy  without entropy=      -67.21110326  energy(sigma->0) =      -67.23068754
 


--------------------------------------------------------------------------------------------------------


    POTLOK:  cpu time    0.0413: real time    0.0414


--------------------------------------------------------------------------------------------------------


 writing wavefunctions
     LOOP+:  cpu time   21.9025: real time   21.9875
    4ORBIT:  cpu time    0.0000: real time    0.0000

 total amount of memory used by VASP MPI-rank0    69296. kBytes
=======================================================================

   base      :      30000. kBytes
   nonl-proj :      16345. kBytes
   fftplans  :       3893. kBytes
   grid      :       6995. kBytes
   one-center:         31. kBytes
   wavefun   :      12032. kBytes
 
  
  
 General timing and accounting informations for this job:
 ========================================================
  
                  Total CPU time used (sec):       27.592
                            User time (sec):       24.466
                          System time (sec):        3.127
                         Elapsed time (sec):       27.792
  
                   Maximum memory used (kb):      119024.
                   Average memory used (kb):           0.
  
                          Minor page faults:        33453
                          Major page faults:            0
                 Voluntary context switches:         1370
