 vasp.5.4.4.18Apr17-6-g9f103f2a35 (build Aug 15 2018 17:53:46) complex          
  
 executed on        TETRALITH-B01 date 2020.10.26  11:13:51
 running on   32 total cores
 distrk:  each k-point on   32 cores,    1 groups
 distr:  one band on NCORES_PER_BAND=   8 cores,    4 groups


--------------------------------------------------------------------------------------------------------


 INCAR:
 POTCAR:    PAW_PBE Pd 04Jan2005                  
 POTCAR:    PAW_PBE Au 04Oct2007                  
 POTCAR:    PAW_PBE Pd 04Jan2005                  
   VRHFIN =Pd : s1 d9                                                           
   LEXCH  = PE                                                                  
   EATOM  =   809.7530 eV,   59.5152 Ry                                         
                                                                                
   TITEL  = PAW_PBE Pd 04Jan2005                                                
   LULTRA =        F    use ultrasoft PP ?                                      
   IUNSCR =        1    unscreen: 0-lin 1-nonlin 2-no                           
   RPACOR =    2.000    partial core radius                                     
   POMASS =  106.420; ZVAL   =   10.000    mass and valenz                      
   RCORE  =    2.600    outmost cutoff radius                                   
   RWIGS  =    2.710; RWIGS  =    1.434    wigner-seitz radius (au A)           
   ENMAX  =  250.925; ENMIN  =  188.194 eV                                      
   ICORE  =        3    local potential                                         
   LCOR   =        T    correct aug charges                                     
   LPAW   =        T    paw PP                                                  
   EAUG   =  416.230                                                            
   DEXC   =    0.000                                                            
   RMAX   =    2.653    core radius for proj-oper                               
   RAUG   =    1.300    factor for augmentation sphere                          
   RDEP   =    2.734    radius for radial grids                                 
   RDEPT  =    2.103    core radius for aug-charge                              
                                                                                
   Atomic configuration                                                         
   12 entries                                                                   
     n  l   j            E        occ.                                          
     1  0  0.50    -24164.6631   2.0000                                         
     2  0  0.50     -3530.9218   2.0000                                         
     2  1  1.50     -3165.6822   6.0000                                         
     3  0  0.50      -639.4577   2.0000                                         
     3  1  1.50      -519.4532   6.0000                                         
     3  2  2.50      -328.9757  10.0000                                         
     4  0  0.50       -88.7014   2.0000                                         
     4  1  1.50       -54.4540   6.0000                                         
     4  2  2.50        -6.6878   9.0000                                         
     5  0  0.50        -4.3543   1.0000                                         
     5  1  0.50        -1.3606   0.0000                                         
     4  3  2.50        -1.3606   0.0000                                         
   Description                                                                  
     l       E           TYP  RCUT    TYP  RCUT                                 
     2     -6.6878251     23  2.400                                             
     2     -8.0484077     23  2.400                                             
     0     -4.3542939     23  2.400                                             
     0      4.3406793     23  2.400                                             
     1     -4.0817478     23  2.600                                             
     1     15.8380318     23  2.600                                             
     3     -4.0817478     23  2.400                                             
  local pseudopotential read in
  partial core-charges read in
  partial kinetic energy density read in
  atomic valenz-charges read in
  non local Contribution for L=           2  read in
    real space projection operators read in
  non local Contribution for L=           2  read in
    real space projection operators read in
  non local Contribution for L=           0  read in
    real space projection operators read in
  non local Contribution for L=           0  read in
    real space projection operators read in
  non local Contribution for L=           1  read in
    real space projection operators read in
  non local Contribution for L=           1  read in
    real space projection operators read in
    PAW grid and wavefunctions read in
 
   number of l-projection  operators is LMAX  =           6
   number of lm-projection operators is LMMAX =          18
 
 POTCAR:    PAW_PBE Au 04Oct2007                  
   VRHFIN =Au: s1d10                                                            
   LEXCH  = PE                                                                  
   EATOM  =   926.0867 eV,   68.0654 Ry                                         
                                                                                
   TITEL  = PAW_PBE Au 04Oct2007                                                
   LULTRA =        F    use ultrasoft PP ?                                      
   IUNSCR =        1    unscreen: 0-lin 1-nonlin 2-no                           
   RPACOR =    2.330    partial core radius                                     
   POMASS =  196.966; ZVAL   =   11.000    mass and valenz                      
   RCORE  =    2.500    outmost cutoff radius                                   
   RWIGS  =    2.840; RWIGS  =    1.503    wigner-seitz radius (au A)           
   ENMAX  =  229.943; ENMIN  =  172.457 eV                                      
   ICORE  =        3    local potential                                         
   LCOR   =        T    correct aug charges                                     
   LPAW   =        T    paw PP                                                  
   EAUG   =  356.670                                                            
   DEXC   =    0.000                                                            
   RMAX   =    2.562    core radius for proj-oper                               
   RAUG   =    1.300    factor for augmentation sphere                          
   RDEP   =    2.598    radius for radial grids                                 
   RDEPT  =    2.193    core radius for aug-charge                              
                                                                                
   Atomic configuration                                                         
   16 entries                                                                   
     n  l   j            E        occ.                                          
     1  0  0.50    -80748.5001   2.0000                                         
     2  0  0.50    -14244.7466   2.0000                                         
     2  1  1.50    -12310.9591   6.0000                                         
     3  0  0.50     -3362.1768   2.0000                                         
     3  1  1.50     -2801.5463   6.0000                                         
     3  2  2.50     -2203.8206  10.0000                                         
     4  0  0.50      -729.8168   2.0000                                         
     4  1  1.50      -546.0527   6.0000                                         
     4  2  2.50      -325.7302  10.0000                                         
     4  3  3.50       -81.1472  14.0000                                         
     5  0  0.50      -108.3201   2.0000                                         
     5  1  1.50       -59.7479   6.0000                                         
     5  2  2.50        -6.8783  10.0000                                         
     6  0  0.50        -5.7602   1.0000                                         
     6  1  1.50        -6.8029   0.0000                                         
     5  3  2.50        -1.3606   0.0000                                         
   Description                                                                  
     l       E           TYP  RCUT    TYP  RCUT                                 
     2     -6.8782861     23  2.500                                             
     2     -8.2388687     23  2.500                                             
     0     -5.7601759     23  2.500                                             
     0     -0.8493231     23  2.500                                             
     1     -2.7211652     23  2.500                                             
     1     27.2116520     23  2.500                                             
     3     -1.3605826     23  2.500                                             
  local pseudopotential read in
  partial core-charges read in
  partial kinetic energy density read in
  atomic valenz-charges read in
  non local Contribution for L=           2  read in
    real space projection operators read in
  non local Contribution for L=           2  read in
    real space projection operators read in
  non local Contribution for L=           0  read in
    real space projection operators read in
  non local Contribution for L=           0  read in
    real space projection operators read in
  non local Contribution for L=           1  read in
    real space projection operators read in
  non local Contribution for L=           1  read in
    real space projection operators read in
    PAW grid and wavefunctions read in
 
   number of l-projection  operators is LMAX  =           6
   number of lm-projection operators is LMMAX =          18
 

 ----------------------------------------------------------------------------- 
|                                                                             |
|  ADVICE TO THIS USER RUNNING 'VASP/VAMP'   (HEAR YOUR MASTER'S VOICE ...):  |
|                                                                             |
|      You enforced a specific xc-type in the INCAR file,                     |
|      a different type was found on the POTCAR file                          |
|          I HOPE YOU KNOW, WHAT YOU ARE  DOING                               |
|                                                                             |
 ----------------------------------------------------------------------------- 

  PAW_PBE Pd 04Jan2005                  :
 energy of atom  1       EATOM= -809.7530
 kinetic energy error for atom=    0.0051 (will be added to EATOM!!)
  PAW_PBE Au 04Oct2007                  :
 energy of atom  2       EATOM= -926.0867
 kinetic energy error for atom=    0.0057 (will be added to EATOM!!)
 
 
 POSCAR: Pd Au                                   
  positions in cartesian coordinates
  No initial velocities read in
 exchange correlation table for  LEXCH =        9
   RHO(1)=    0.500       N(1)  =     2000
   RHO(2)=  100.500       N(2)  =     4000
 


--------------------------------------------------------------------------------------------------------


 ion  position               nearest neighbor table
   1  0.000  0.000  0.407-   4 2.83   5 2.84   6 2.84   7 2.90   8 2.90   2 2.90   2 2.90   8 2.90
                             7 2.90
   2  0.500  0.500  0.407-   3 2.83   6 2.84   5 2.84   8 2.90   7 2.90   1 2.90   1 2.90   7 2.90
                             8 2.90
   3  0.666  0.666  0.499-   2 2.83   5 2.88   6 2.88   7 2.89   8 2.89   4 2.90   4 2.90  12 2.90
                            11 2.90  10 2.90   6 2.91   5 2.91
   4  0.166  0.166  0.499-   1 2.83   5 2.88   6 2.88   8 2.89   7 2.89   3 2.90   3 2.90  11 2.90
                            12 2.90   9 2.90   6 2.91   5 2.91
   5  0.167  0.667  0.500-   1 2.84   2 2.84   3 2.88   4 2.88  12 2.89   8 2.89  10 2.90   9 2.90
                             6 2.90   6 2.90   4 2.91   3 2.91
   6  0.667  0.167  0.500-   1 2.84   2 2.84   3 2.88   4 2.88  11 2.89   7 2.89  10 2.90   9 2.90
                             5 2.90   5 2.90   4 2.91   3 2.91
   7  0.500  0.000  0.404-   3 2.89   4 2.89   6 2.89   1 2.90   2 2.90   8 2.90   8 2.90   2 2.90
                             1 2.90
   8  0.000  0.500  0.404-   3 2.89   4 2.89   5 2.89   1 2.90   2 2.90   7 2.90   7 2.90   2 2.90
                             1 2.90
   9  0.333  0.333  0.595-  12 2.89  11 2.89   6 2.90   5 2.90  10 2.90  10 2.90  11 2.90  12 2.90
                             4 2.90
  10  0.833  0.833  0.595-  11 2.89  12 2.89   5 2.90   6 2.90   9 2.90   9 2.90  12 2.90  11 2.90
                             3 2.90
  11  0.833  0.333  0.595-   6 2.89  10 2.89   9 2.89  12 2.90  12 2.90   4 2.90   3 2.90   9 2.90
                            10 2.90
  12  0.333  0.833  0.595-   5 2.89  10 2.89   9 2.89  11 2.90  11 2.90   4 2.90   3 2.90   9 2.90
                            10 2.90
 
  LATTYP: Found a hexagonal cell.
 ALAT       =     5.7950627388
 C/A-ratio  =     4.2677102953
  
  Lattice vectors:
  
 A1 = (   2.8975313694,  -5.0186715483,   0.0000000000)
 A2 = (  -5.7950627388,   0.0000000000,   0.0000000000)
 A3 = (   0.0000000000,   0.0000000000, -24.7316489125)


Analysis of symmetry for initial positions (statically):
=====================================================================
 Subroutine PRICEL returns following result:
 
  LATTYP: Found a simple orthorhombic cell.
 ALAT       =     2.8975313357
 B/A-ratio  =     1.7320506337
 C/A-ratio  =     8.5354206901
  
  Lattice vectors:
  
 A1 = (   1.4487651810,  -2.5093360260,   0.0000007555)
 A2 = (  -4.3462965504,  -2.5093355223,  -0.0000007555)
 A3 = (   0.0000000000,   0.0000000000, -24.7316489125)
 
   2 primitive cells build up your supercell.
 

 Routine SETGRP: Setting up the symmetry group for a 
 hexagonal supercell.


 Subroutine GETGRP returns: Found  2 space group operations
 (whereof  2 operations were pure point group operations)
 out of a pool of 24 trial point group operations.


The static configuration has the point symmetry C_1h.


Analysis of symmetry for dynamics (positions and initial velocities):
=====================================================================
 Subroutine PRICEL returns following result:
 
  LATTYP: Found a simple orthorhombic cell.
 ALAT       =     2.8975313357
 B/A-ratio  =     1.7320506337
 C/A-ratio  =     8.5354206901
  
  Lattice vectors:
  
 A1 = (   1.4487651810,  -2.5093360260,   0.0000007555)
 A2 = (  -4.3462965504,  -2.5093355223,  -0.0000007555)
 A3 = (   0.0000000000,   0.0000000000, -24.7316489125)
 
   2 primitive cells build up your supercell.
 

 Routine SETGRP: Setting up the symmetry group for a 
 hexagonal supercell.


 Subroutine GETGRP returns: Found  2 space group operations
 (whereof  2 operations were pure point group operations)
 out of a pool of 24 trial point group operations.


The dynamic configuration has the point symmetry C_1h.


 Subroutine INISYM returns: Found  2 space group operations
 (whereof  2 operations are pure point group operations),
 and found     2 'primitive' translations

 
 
 KPOINTS: KPOINTS created by Atomic Simulation Env

Automatic generation of k-mesh.
Space group operators:
 irot       det(A)        alpha          n_x          n_y          n_z        tau_x        tau_y        tau_z
    1     1.000000     0.000000     1.000000     0.000000     0.000000     0.000000     0.000000     0.000000
    2    -1.000000   180.000000     0.500000    -0.866025     0.000000     0.000000     0.000000     0.000000
 
 Subroutine IBZKPT returns following result:
 ===========================================
 
 Found     52 irreducible k-points:
 
 Following reciprocal coordinates:
            Coordinates               Weight
  0.062500  0.062500  0.000000     16.000000
  0.000000  0.062500  0.000000     32.000000
  0.187500  0.062500  0.000000     32.000000
  0.125000  0.187500  0.000000     32.000000
 -0.062500  0.125000  0.000000     32.000000
  0.312500  0.062500  0.000000     32.000000
  0.250000  0.312500  0.000000     32.000000
 -0.062500  0.250000  0.000000     32.000000
  0.437500  0.062500  0.000000     32.000000
  0.375000  0.437500  0.000000     32.000000
 -0.062500  0.375000  0.000000     32.000000
 -0.437500  0.062500  0.000000     32.000000
  0.500000 -0.437500  0.000000     32.000000
 -0.062500  0.500000  0.000000     32.000000
 -0.312500  0.062500  0.000000     32.000000
 -0.375000 -0.312500  0.000000     32.000000
 -0.062500 -0.375000  0.000000     32.000000
 -0.187500  0.062500  0.000000     32.000000
 -0.250000 -0.187500  0.000000     32.000000
 -0.062500 -0.250000  0.000000     32.000000
 -0.062500  0.062500  0.000000     16.000000
 -0.125000 -0.062500  0.000000     32.000000
  0.187500  0.187500  0.000000     16.000000
  0.000000  0.187500  0.000000     32.000000
  0.312500  0.187500  0.000000     32.000000
  0.125000  0.312500  0.000000     32.000000
 -0.187500  0.125000  0.000000     32.000000
  0.437500  0.187500  0.000000     32.000000
  0.250000  0.437500  0.000000     32.000000
 -0.187500  0.250000  0.000000     32.000000
 -0.437500  0.187500  0.000000     32.000000
  0.375000 -0.437500  0.000000     32.000000
 -0.187500  0.375000  0.000000     32.000000
 -0.312500  0.187500  0.000000     32.000000
  0.500000 -0.312500  0.000000     32.000000
 -0.187500  0.500000  0.000000     32.000000
 -0.187500  0.187500  0.000000     16.000000
 -0.375000 -0.187500  0.000000     32.000000
  0.312500  0.312500  0.000000     16.000000
  0.000000  0.312500  0.000000     32.000000
  0.437500  0.312500  0.000000     32.000000
  0.125000  0.437500  0.000000     32.000000
 -0.312500  0.125000  0.000000     32.000000
 -0.437500  0.312500  0.000000     32.000000
  0.250000 -0.437500  0.000000     32.000000
 -0.312500  0.250000  0.000000     32.000000
 -0.312500  0.312500  0.000000     16.000000
  0.375000 -0.312500  0.000000     32.000000
  0.437500  0.437500  0.000000     16.000000
  0.000000  0.437500  0.000000     32.000000
 -0.437500  0.437500  0.000000     16.000000
  0.125000 -0.437500  0.000000     32.000000
 
 Following cartesian coordinates:
            Coordinates               Weight
  0.010785  0.006227  0.000000     16.000000
  0.000000  0.012453  0.000000     32.000000
  0.032355 -0.006227  0.000000     32.000000
  0.021570  0.024907  0.000000     32.000000
 -0.010785  0.031134  0.000000     32.000000
  0.053925 -0.018680  0.000000     32.000000
  0.043140  0.037360  0.000000     32.000000
 -0.010785  0.056041  0.000000     32.000000
  0.075495 -0.031134  0.000000     32.000000
  0.064710  0.049814  0.000000     32.000000
 -0.010785  0.080948  0.000000     32.000000
 -0.075495  0.056041  0.000000     32.000000
  0.086280 -0.136988  0.000000     32.000000
 -0.010785  0.105855  0.000000     32.000000
 -0.053925  0.043587  0.000000     32.000000
 -0.064710 -0.024907  0.000000     32.000000
 -0.010785 -0.068494  0.000000     32.000000
 -0.032355  0.031134  0.000000     32.000000
 -0.043140 -0.012453  0.000000     32.000000
 -0.010785 -0.043587  0.000000     32.000000
 -0.010785  0.018680  0.000000     16.000000
 -0.021570 -0.000000  0.000000     32.000000
  0.032355  0.018680  0.000000     16.000000
  0.000000  0.037360  0.000000     32.000000
  0.053925  0.006227  0.000000     32.000000
  0.021570  0.049814  0.000000     32.000000
 -0.032355  0.043587  0.000000     32.000000
  0.075495 -0.006227  0.000000     32.000000
  0.043140  0.062267  0.000000     32.000000
 -0.032355  0.068494  0.000000     32.000000
 -0.075495  0.080948  0.000000     32.000000
  0.064710 -0.124535  0.000000     32.000000
 -0.032355  0.093401  0.000000     32.000000
 -0.053925  0.068494  0.000000     32.000000
  0.086280 -0.112081  0.000000     32.000000
 -0.032355  0.118308  0.000000     32.000000
 -0.032355  0.056041  0.000000     16.000000
 -0.064710  0.000000  0.000000     32.000000
  0.053925  0.031134  0.000000     16.000000
  0.000000  0.062267  0.000000     32.000000
  0.075495  0.018680  0.000000     32.000000
  0.021570  0.074721  0.000000     32.000000
 -0.053925  0.056041  0.000000     32.000000
 -0.075495  0.105855  0.000000     32.000000
  0.043140 -0.112081  0.000000     32.000000
 -0.053925  0.080948  0.000000     32.000000
 -0.053925  0.093401  0.000000     16.000000
  0.064710 -0.099628  0.000000     32.000000
  0.075495  0.043587  0.000000     16.000000
  0.000000  0.087174  0.000000     32.000000
 -0.075495  0.130762  0.000000     16.000000
  0.021570 -0.099628  0.000000     32.000000
 


--------------------------------------------------------------------------------------------------------




 Dimension of arrays:
   k-points           NKPTS =     52   k-points in BZ     NKDIM =     52   number of bands    NBANDS=     76
   number of dos      NEDOS =    301   number of ions     NIONS =     12
   non local maximal  LDIM  =      6   non local SUM 2l+1 LMDIM =     18
   total plane-waves  NPLWV = 288000
   max r-space proj   IRMAX =      1   max aug-charges    IRDMAX=  24682
   dimension x,y,z NGX =    40 NGY =   40 NGZ =  180
   dimension x,y,z NGXF=    80 NGYF=   80 NGZF=  360
   support grid    NGXF=    80 NGYF=   80 NGZF=  360
   ions per type =               6   6
   NGX,Y,Z   is equivalent  to a cutoff of  11.48, 11.48, 12.10 a.u.
   NGXF,Y,Z  is equivalent  to a cutoff of  22.95, 22.95, 24.20 a.u.

 SYSTEM =  out                                     
 POSCAR =  Pd Au                                   

 Startparameter for this run:
   NWRITE =      2    write-flag & timer
   PREC   = accura    normal or accurate (medium, high low for compatibility)
   ISTART =      1    job   : 0-new  1-cont  2-samecut
   ICHARG =      0    charge: 1-file 2-atom 10-const
   ISPIN  =      1    spin polarized calculation?
   LNONCOLLINEAR =      F non collinear calculations
   LSORBIT =      F    spin-orbit coupling
   INIWAV =      1    electr: 0-lowe 1-rand  2-diag
   LASPH  =      F    aspherical Exc in radial PAW
   METAGGA=      F    non-selfconsistent MetaGGA calc.

 Electronic Relaxation 1
   ENCUT  =  450.0 eV  33.07 Ry    5.75 a.u.  10.02 10.02 42.78*2*pi/ulx,y,z
   ENINI  =  450.0     initial cutoff
   ENAUG  =  416.2 eV  augmentation charge cutoff
   NELM   =    200;   NELMIN=  2; NELMDL=  0     # of ELM steps 
   EDIFF  = 0.1E-03   stopping-criterion for ELM
   LREAL  =      F    real-space projection
   NLSPLINE    = F    spline interpolate recip. space projectors
   LCOMPAT=      F    compatible to vasp.4.4
   GGA_COMPAT  = T    GGA compatible to vasp.4.4-vasp.4.6
   LMAXPAW     = -100 max onsite density
   LMAXMIX     =    2 max onsite mixed and CHGCAR
   VOSKOWN=      0    Vosko Wilk Nusair interpolation
   ROPT   =    0.00000   0.00000
 Ionic relaxation
   EDIFFG = 0.1E-02   stopping-criterion for IOM
   NSW    =      0    number of steps for IOM
   NBLOCK =      1;   KBLOCK =      1    inner block; outer block 
   IBRION =     -1    ionic relax: 0-MD 1-quasi-New 2-CG
   NFREE  =      0    steps in history (QN), initial steepest desc. (CG)
   ISIF   =      2    stress and relaxation
   IWAVPR =     10    prediction:  0-non 1-charg 2-wave 3-comb
   ISYM   =      2    0-nonsym 1-usesym 2-fastsym
   LCORR  =      T    Harris-Foulkes like correction to forces

   POTIM  = 0.5000    time-step for ionic-motion
   TEIN   =    0.0    initial temperature
   TEBEG  =    0.0;   TEEND  =   0.0 temperature during run
   SMASS  =  -3.00    Nose mass-parameter (am)
   estimated Nose-frequenzy (Omega)   =  0.10E-29 period in steps =****** mass=  -0.767E-27a.u.
   SCALEE = 1.0000    scale energy and forces
   NPACO  =    256;   APACO  = 16.0  distance and # of slots for P.C.
   PSTRESS=    0.0 pullay stress

  Mass of Ions in am
   POMASS = 106.42196.97
  Ionic Valenz
   ZVAL   =  10.00 11.00
  Atomic Wigner-Seitz radii
   RWIGS  =  -1.00 -1.00
  virtual crystal weights 
   VCA    =   1.00  1.00
   NELECT =     126.0000    total number of electrons
   NUPDOWN=      -1.0000    fix difference up-down

 DOS related values:
   EMIN   =  10.00;   EMAX   =-10.00  energy-range for DOS
   EFERMI =   0.00
   ISMEAR =     0;   SIGMA  =   0.05  broadening in eV -4-tet -1-fermi 0-gaus

 Electronic relaxation 2 (details)
   IALGO  =     68    algorithm
   LDIAG  =      T    sub-space diagonalisation (order eigenvalues)
   LSUBROT=      F    optimize rotation matrix (better conditioning)
   TURBO    =      0    0=normal 1=particle mesh
   IRESTART =      0    0=no restart 2=restart with 2 vectors
   NREBOOT  =      0    no. of reboots
   NMIN     =      0    reboot dimension
   EREF     =   0.00    reference energy to select bands
   IMIX   =      4    mixing-type and parameters
     AMIX     =   0.40;   BMIX     =  1.00
     AMIX_MAG =   1.60;   BMIX_MAG =  1.00
     AMIN     =   0.10
     WC   =   100.;   INIMIX=   1;  MIXPRE=   1;  MAXMIX= -45

 Intra band minimization:
   WEIMIN = 0.0000     energy-eigenvalue tresh-hold
   EBREAK =  0.33E-06  absolut break condition
   DEPER  =   0.30     relativ break condition  

   TIME   =   0.40     timestep for ELM

  volume/ion in A,a.u.               =      59.94       404.50
  Fermi-wavevector in a.u.,A,eV,Ry     =   0.916006  1.731000 11.416201  0.839067
  Thomas-Fermi vector in A             =   2.040812
 
 Write flags
   LWAVE        =      T    write WAVECAR
   LDOWNSAMPLE  =      F    k-point downsampling of WAVECAR
   LCHARG       =      T    write CHGCAR
   LVTOT        =      F    write LOCPOT, total local potential
   LVHAR        =      F    write LOCPOT, Hartree potential only
   LELF         =      F    write electronic localiz. function (ELF)
   LORBIT       =      0    0 simple, 1 ext, 2 COOP (PROOUT), +10 PAW based schemes


 Dipole corrections
   LMONO  =      F    monopole corrections only (constant potential shift)
   LDIPOL =      F    correct potential (dipole corrections)
   IDIPOL =      0    1-x, 2-y, 3-z, 4-all directions 
   EPSILON=  1.0000000 bulk dielectric constant

 Exchange correlation treatment:
   GGA     =    RP    GGA type
   LEXCH   =     9    internal setting for exchange type
   VOSKOWN=      0    Vosko Wilk Nusair interpolation
   LHFCALC =     F    Hartree Fock is set to
   LHFONE  =     F    Hartree Fock one center treatment
   AEXX    =    0.0000 exact exchange contribution

 Linear response parameters
   LEPSILON=     F    determine dielectric tensor
   LRPA    =     F    only Hartree local field effects (RPA)
   LNABLA  =     F    use nabla operator in PAW spheres
   LVEL    =     F    velocity operator in full k-point grid
   LINTERFAST=   F  fast interpolation
   KINTER  =     0    interpolate to denser k-point grid
   CSHIFT  =0.1000    complex shift for real part using Kramers Kronig
   OMEGAMAX=  -1.0    maximum frequency
   DEG_THRESHOLD= 0.2000000E-02 threshold for treating states as degnerate
   RTIME   =   -0.100 relaxation time in fs
  (WPLASMAI=    0.000 imaginary part of plasma frequency in eV, 0.658/RTIME)
   DFIELD  = 0.0000000 0.0000000 0.0000000 field for delta impulse in time
 
 Orbital magnetization related:
   ORBITALMAG=     F  switch on orbital magnetization
   LCHIMAG   =     F  perturbation theory with respect to B field
   DQ        =  0.001000  dq finite difference perturbation B field
   LLRAUG    =     F  two centre corrections for induced B field



--------------------------------------------------------------------------------------------------------


 Static calculation
 charge density and potential will be updated during run
 non-spin polarized calculation
 RMM-DIIS sequential band-by-band and
  variant of blocked Davidson during initial phase
 perform sub-space diagonalisation
    before iterative eigenvector-optimisation
 modified Broyden-mixing scheme, WC =      100.0
 initial mixing is a Kerker type mixing with AMIX =  0.4000 and BMIX =      1.0000
 Hartree-type preconditioning will be used
 using additional bands           13
 reciprocal scheme for non local part
 use partial core corrections
 calculate Harris-corrections to forces 
   (improved forces if not selfconsistent)
 use gradient corrections 
 use of overlap-Matrix (Vanderbilt PP)
 Gauss-broadening in eV      SIGMA  =   0.05


--------------------------------------------------------------------------------------------------------


  energy-cutoff  :      450.00
  volume of cell :      719.28
      direct lattice vectors                 reciprocal lattice vectors
     5.795062739  0.000000000  0.000000000     0.172560686 -0.099627958  0.000000000
     2.897531369  5.018671548  0.000000000     0.000000000  0.199255917  0.000000000
     0.000000000  0.000000000 24.731648912     0.000000000  0.000000000  0.040434021

  length of vectors
     5.795062739  5.795062739 24.731648912     0.199255917  0.199255917  0.040434021


 
 old parameters found on file WAVECAR:
  energy-cutoff  :      450.00
  volume of cell :      719.28
      direct lattice vectors                 reciprocal lattice vectors
     5.795062739  0.000000000  0.000000000     0.172560686 -0.099627958  0.000000000
     2.897531369  5.018671548  0.000000000     0.000000000  0.199255917  0.000000000
     0.000000000  0.000000000 24.731648912     0.000000000  0.000000000  0.040434021

  length of vectors

 
 k-points in units of 2pi/SCALE and weight: KPOINTS created by Atomic Simulation Env
   0.01078504  0.00622675  0.00000000       0.010
   0.00000000  0.01245349  0.00000000       0.021
   0.03235513 -0.00622675  0.00000000       0.021
   0.02157009  0.02490699  0.00000000       0.021
  -0.01078504  0.03113374  0.00000000       0.021
   0.05392521 -0.01868024  0.00000000       0.021
   0.04314017  0.03736048  0.00000000       0.021
  -0.01078504  0.05604073  0.00000000       0.021
   0.07549530 -0.03113374  0.00000000       0.021
   0.06471026  0.04981398  0.00000000       0.021
  -0.01078504  0.08094772  0.00000000       0.021
  -0.07549530  0.05604073  0.00000000       0.021
   0.08628034 -0.13698844  0.00000000       0.021
  -0.01078504  0.10585471  0.00000000       0.021
  -0.05392521  0.04358723  0.00000000       0.021
  -0.06471026 -0.02490699  0.00000000       0.021
  -0.01078504 -0.06849422  0.00000000       0.021
  -0.03235513  0.03113374  0.00000000       0.021
  -0.04314017 -0.01245349  0.00000000       0.021
  -0.01078504 -0.04358723  0.00000000       0.021
  -0.01078504  0.01868024  0.00000000       0.010
  -0.02157009 -0.00000000  0.00000000       0.021
   0.03235513  0.01868024  0.00000000       0.010
   0.00000000  0.03736048  0.00000000       0.021
   0.05392521  0.00622675  0.00000000       0.021
   0.02157009  0.04981398  0.00000000       0.021
  -0.03235513  0.04358723  0.00000000       0.021
   0.07549530 -0.00622675  0.00000000       0.021
   0.04314017  0.06226747  0.00000000       0.021
  -0.03235513  0.06849422  0.00000000       0.021
  -0.07549530  0.08094772  0.00000000       0.021
   0.06471026 -0.12453495  0.00000000       0.021
  -0.03235513  0.09340121  0.00000000       0.021
  -0.05392521  0.06849422  0.00000000       0.021
   0.08628034 -0.11208145  0.00000000       0.021
  -0.03235513  0.11830820  0.00000000       0.021
  -0.03235513  0.05604073  0.00000000       0.010
  -0.06471026  0.00000000  0.00000000       0.021
   0.05392521  0.03113374  0.00000000       0.010
   0.00000000  0.06226747  0.00000000       0.021
   0.07549530  0.01868024  0.00000000       0.021
   0.02157009  0.07472097  0.00000000       0.021
  -0.05392521  0.05604073  0.00000000       0.021
  -0.07549530  0.10585471  0.00000000       0.021
   0.04314017 -0.11208145  0.00000000       0.021
  -0.05392521  0.08094772  0.00000000       0.021
  -0.05392521  0.09340121  0.00000000       0.010
   0.06471026 -0.09962796  0.00000000       0.021
   0.07549530  0.04358723  0.00000000       0.010
   0.00000000  0.08717446  0.00000000       0.021
  -0.07549530  0.13076170  0.00000000       0.010
   0.02157009 -0.09962796  0.00000000       0.021
 
 k-points in reciprocal lattice and weights: KPOINTS created by Atomic Simulation Env
   0.06250000  0.06250000  0.00000000       0.010
   0.00000000  0.06250000  0.00000000       0.021
   0.18750000  0.06250000  0.00000000       0.021
   0.12500000  0.18750000  0.00000000       0.021
  -0.06250000  0.12500000  0.00000000       0.021
   0.31250000  0.06250000  0.00000000       0.021
   0.25000000  0.31250000  0.00000000       0.021
  -0.06250000  0.25000000  0.00000000       0.021
   0.43750000  0.06250000  0.00000000       0.021
   0.37500000  0.43750000  0.00000000       0.021
  -0.06250000  0.37500000  0.00000000       0.021
  -0.43750000  0.06250000  0.00000000       0.021
   0.50000000 -0.43750000  0.00000000       0.021
  -0.06250000  0.50000000  0.00000000       0.021
  -0.31250000  0.06250000  0.00000000       0.021
  -0.37500000 -0.31250000  0.00000000       0.021
  -0.06250000 -0.37500000  0.00000000       0.021
  -0.18750000  0.06250000  0.00000000       0.021
  -0.25000000 -0.18750000  0.00000000       0.021
  -0.06250000 -0.25000000  0.00000000       0.021
  -0.06250000  0.06250000  0.00000000       0.010
  -0.12500000 -0.06250000  0.00000000       0.021
   0.18750000  0.18750000  0.00000000       0.010
   0.00000000  0.18750000  0.00000000       0.021
   0.31250000  0.18750000  0.00000000       0.021
   0.12500000  0.31250000  0.00000000       0.021
  -0.18750000  0.12500000  0.00000000       0.021
   0.43750000  0.18750000  0.00000000       0.021
   0.25000000  0.43750000  0.00000000       0.021
  -0.18750000  0.25000000  0.00000000       0.021
  -0.43750000  0.18750000  0.00000000       0.021
   0.37500000 -0.43750000  0.00000000       0.021
  -0.18750000  0.37500000  0.00000000       0.021
  -0.31250000  0.18750000  0.00000000       0.021
   0.50000000 -0.31250000  0.00000000       0.021
  -0.18750000  0.50000000  0.00000000       0.021
  -0.18750000  0.18750000  0.00000000       0.010
  -0.37500000 -0.18750000  0.00000000       0.021
   0.31250000  0.31250000  0.00000000       0.010
   0.00000000  0.31250000  0.00000000       0.021
   0.43750000  0.31250000  0.00000000       0.021
   0.12500000  0.43750000  0.00000000       0.021
  -0.31250000  0.12500000  0.00000000       0.021
  -0.43750000  0.31250000  0.00000000       0.021
   0.25000000 -0.43750000  0.00000000       0.021
  -0.31250000  0.25000000  0.00000000       0.021
  -0.31250000  0.31250000  0.00000000       0.010
   0.37500000 -0.31250000  0.00000000       0.021
   0.43750000  0.43750000  0.00000000       0.010
   0.00000000  0.43750000  0.00000000       0.021
  -0.43750000  0.43750000  0.00000000       0.010
   0.12500000 -0.43750000  0.00000000       0.021
 
 position of ions in fractional coordinates (direct lattice) 
   0.00004020  0.00004021  0.40676148
   0.50004026  0.50004026  0.40676145
   0.66580117  0.66580123  0.49934788
   0.16580122  0.16580123  0.49934790
   0.16744479  0.66744481  0.49953139
   0.66744479  0.16744481  0.49953139
   0.50028413  0.00028409  0.40416035
   0.00028411  0.50028412  0.40416035
   0.33306624  0.33306622  0.59498462
   0.83306617  0.83306615  0.59498460
   0.83336342  0.33336348  0.59521430
   0.33336347  0.83336343  0.59521430
 
 position of ions in cartesian coordinates  (Angst):
   0.00034948  0.00020181 10.05988206
   4.34664704  2.50953783 10.05988130
   5.78753953  3.34143770 12.34969640
   1.44124273  0.83210193 12.34969703
   2.90429534  3.34968627 12.35423495
   4.35306102  0.84035050 12.35423495
   2.90000107  0.00142576  9.99555187
   1.45123538  2.51076166  9.99555187
   2.89520961  1.67154998 14.71495071
   7.24150603  4.18088538 14.71495021
   5.79532447  1.67304183 14.72063106
   4.34655891  4.18237735 14.72063106
 


--------------------------------------------------------------------------------------------------------


 k-point  1 :   0.0625 0.0625 0.0000  plane waves:   15521
 k-point  2 :   0.0000 0.0625 0.0000  plane waves:   15521
 k-point  3 :   0.1875 0.0625 0.0000  plane waves:   15547
 k-point  4 :   0.1250 0.1875 0.0000  plane waves:   15547
 k-point  5 :  -0.0625 0.1250 0.0000  plane waves:   15547
 k-point  6 :   0.3125 0.0625 0.0000  plane waves:   15568
 k-point  7 :   0.2500 0.3125 0.0000  plane waves:   15568
 k-point  8 :  -0.0625 0.2500 0.0000  plane waves:   15568
 k-point  9 :   0.4375 0.0625 0.0000  plane waves:   15609
 k-point 10 :   0.3750 0.4375 0.0000  plane waves:   15609
 k-point 11 :  -0.0625 0.3750 0.0000  plane waves:   15609
 k-point 12 :  -0.4375 0.0625 0.0000  plane waves:   15598
 k-point 13 :   0.5000-0.4375 0.0000  plane waves:   15598
 k-point 14 :  -0.0625 0.5000 0.0000  plane waves:   15598
 k-point 15 :  -0.3125 0.0625 0.0000  plane waves:   15595
 k-point 16 :  -0.3750-0.3125 0.0000  plane waves:   15595
 k-point 17 :  -0.0625-0.3750 0.0000  plane waves:   15595
 k-point 18 :  -0.1875 0.0625 0.0000  plane waves:   15544
 k-point 19 :  -0.2500-0.1875 0.0000  plane waves:   15544
 k-point 20 :  -0.0625-0.2500 0.0000  plane waves:   15544
 k-point 21 :  -0.0625 0.0625 0.0000  plane waves:   15544
 k-point 22 :  -0.1250-0.0625 0.0000  plane waves:   15544
 k-point 23 :   0.1875 0.1875 0.0000  plane waves:   15537
 k-point 24 :   0.0000 0.1875 0.0000  plane waves:   15537
 k-point 25 :   0.3125 0.1875 0.0000  plane waves:   15578
 k-point 26 :   0.1250 0.3125 0.0000  plane waves:   15578
 k-point 27 :  -0.1875 0.1250 0.0000  plane waves:   15578
 k-point 28 :   0.4375 0.1875 0.0000  plane waves:   15631
 k-point 29 :   0.2500 0.4375 0.0000  plane waves:   15631
 k-point 30 :  -0.1875 0.2500 0.0000  plane waves:   15631
 k-point 31 :  -0.4375 0.1875 0.0000  plane waves:   15615
 k-point 32 :   0.3750-0.4375 0.0000  plane waves:   15615
 k-point 33 :  -0.1875 0.3750 0.0000  plane waves:   15615
 k-point 34 :  -0.3125 0.1875 0.0000  plane waves:   15634
 k-point 35 :   0.5000-0.3125 0.0000  plane waves:   15634
 k-point 36 :  -0.1875 0.5000 0.0000  plane waves:   15634
 k-point 37 :  -0.1875 0.1875 0.0000  plane waves:   15620
 k-point 38 :  -0.3750-0.1875 0.0000  plane waves:   15620
 k-point 39 :   0.3125 0.3125 0.0000  plane waves:   15575
 k-point 40 :   0.0000 0.3125 0.0000  plane waves:   15575
 k-point 41 :   0.4375 0.3125 0.0000  plane waves:   15613
 k-point 42 :   0.1250 0.4375 0.0000  plane waves:   15613
 k-point 43 :  -0.3125 0.1250 0.0000  plane waves:   15613
 k-point 44 :  -0.4375 0.3125 0.0000  plane waves:   15622
 k-point 45 :   0.2500-0.4375 0.0000  plane waves:   15622
 k-point 46 :  -0.3125 0.2500 0.0000  plane waves:   15622
 k-point 47 :  -0.3125 0.3125 0.0000  plane waves:   15632
 k-point 48 :   0.3750-0.3125 0.0000  plane waves:   15632
 k-point 49 :   0.4375 0.4375 0.0000  plane waves:   15594
 k-point 50 :   0.0000 0.4375 0.0000  plane waves:   15594
 k-point 51 :  -0.4375 0.4375 0.0000  plane waves:   15602
 k-point 52 :   0.1250-0.4375 0.0000  plane waves:   15602

 maximum and minimum number of plane-waves per node :      1991     1920

 maximum number of plane-waves:     15634
 maximum index in each direction: 
   IXMAX=   10   IYMAX=   10   IZMAX=   42
   IXMIN=  -10   IYMIN=  -10   IZMIN=  -42


 parallel 3D FFT for wavefunctions:
    minimum data exchange during FFTs selected (reduces bandwidth)
 parallel 3D FFT for charge:
    minimum data exchange during FFTs selected (reduces bandwidth)


 total amount of memory used by VASP MPI-rank0   101509. kBytes
=======================================================================

   base      :      30000. kBytes
   nonl-proj :      29729. kBytes
   fftplans  :       3897. kBytes
   grid      :       6300. kBytes
   one-center:         31. kBytes
   wavefun   :      31552. kBytes
 
     INWAV:  cpu time    2.3629: real time    2.3789
 Broyden mixing: mesh for mixing (old mesh)
   NGX = 21   NGY = 21   NGZ = 85
  (NGX  = 80   NGY  = 80   NGZ  =360)
  gives a total of  37485 points

 charge density for first step will be calculated from the start-wavefunctions


--------------------------------------------------------------------------------------------------------


 Maximum index for augmentation-charges         1391 (set IRDMAX)


--------------------------------------------------------------------------------------------------------


 initial charge from wavefunction
 First call to EWALD:  gamma=   0.198
 Maximum number of real-space cells 5x 5x 1
 Maximum number of reciprocal cells 2x 2x 7

    FEWALD:  cpu time    0.0017: real time    0.0018


--------------------------------------- Iteration      1(   1)  ---------------------------------------


    POTLOK:  cpu time    0.0409: real time    0.0425
    SETDIJ:  cpu time    0.0037: real time    0.0038
     EDDAV:  cpu time    6.3243: real time    6.3470
       DOS:  cpu time    0.0032: real time    0.0032
    CHARGE:  cpu time    0.3412: real time    0.3421
    MIXING:  cpu time    0.0024: real time    0.0027
    --------------------------------------------
      LOOP:  cpu time    6.7158: real time    6.7415

 eigenvalue-minimisations  :  7916
 total energy-change (2. order) :-0.4181970E+02  (-0.1769993E+00)
 number of electron     125.9999996 magnetization 
 augmentation part       49.8607044 magnetization 

 Broyden mixing:
  rms(total) = 0.25711E+00    rms(broyden)= 0.25710E+00
  rms(prec ) = 0.31552E+00
  weight for this iteration     100.00

 Free energy of the ion-electron system (eV)
  ---------------------------------------------------
  alpha Z        PSCENC =       179.79803298
  Ewald energy   TEWEN  =     43294.88205886
  -Hartree energ DENC   =    -53816.96348744
  -exchange      EXHF   =         0.00000000
  -V(xc)+E(xc)   XCENC  =       -96.63151923
  PAW double counting   =     11484.25874588   -10981.36526568
  entropy T*S    EENTRO =        -0.01805515
  eigenvalues    EBANDS =      -512.60069138
  atomic energy  EATOM  =     10406.82048304
  Solvation  Ediel_sol  =         0.00000000
  ---------------------------------------------------
  free energy    TOTEN  =       -41.81969810 eV

  energy without entropy =      -41.80164295  energy(sigma->0) =      -41.81067053


--------------------------------------------------------------------------------------------------------




--------------------------------------- Iteration      1(   2)  ---------------------------------------


    POTLOK:  cpu time    0.0359: real time    0.0360
    SETDIJ:  cpu time    0.0041: real time    0.0041
    EDDIAG:  cpu time    1.0451: real time    1.0485
  RMM-DIIS:  cpu time    4.6384: real time    4.6532
    ORTHCH:  cpu time    0.1099: real time    0.1101
       DOS:  cpu time    0.0033: real time    0.0033
    CHARGE:  cpu time    0.3365: real time    0.3374
    MIXING:  cpu time    0.0018: real time    0.0019
    --------------------------------------------
      LOOP:  cpu time    6.1749: real time    6.1946

 eigenvalue-minimisations  :  8002
 total energy-change (2. order) :-0.8177440E+00  (-0.1659836E+00)
 number of electron     125.9999993 magnetization 
 augmentation part       49.4183275 magnetization 

 Broyden mixing:
  rms(total) = 0.76788E+00    rms(broyden)= 0.76786E+00
  rms(prec ) = 0.88024E+00
  weight for this iteration     100.00

 eigenvalues of (default mixing * dielectric matrix)
  average eigenvalue GAMMA=   0.2393
  0.2393

 Free energy of the ion-electron system (eV)
  ---------------------------------------------------
  alpha Z        PSCENC =       179.79803298
  Ewald energy   TEWEN  =     43294.88205886
  -Hartree energ DENC   =    -53844.90469755
  -exchange      EXHF   =         0.00000000
  -V(xc)+E(xc)   XCENC  =       -96.65493600
  PAW double counting   =     11495.49549006   -10992.36408481
  entropy T*S    EENTRO =        -0.00829729
  eigenvalues    EBANDS =      -485.70149143
  atomic energy  EATOM  =     10406.82048304
  Solvation  Ediel_sol  =         0.00000000
  ---------------------------------------------------
  free energy    TOTEN  =       -42.63744212 eV

  energy without entropy =      -42.62914483  energy(sigma->0) =      -42.63329348


--------------------------------------------------------------------------------------------------------




--------------------------------------- Iteration      1(   3)  ---------------------------------------


    POTLOK:  cpu time    0.0367: real time    0.0370
    SETDIJ:  cpu time    0.0035: real time    0.0035
    EDDIAG:  cpu time    1.0447: real time    1.0477
  RMM-DIIS:  cpu time    4.6378: real time    4.6524
    ORTHCH:  cpu time    0.1120: real time    0.1123
       DOS:  cpu time    0.0031: real time    0.0031
    CHARGE:  cpu time    0.3359: real time    0.3369
    MIXING:  cpu time    0.0017: real time    0.0017
    --------------------------------------------
      LOOP:  cpu time    6.1754: real time    6.1945

 eigenvalue-minimisations  :  7921
 total energy-change (2. order) : 0.9295348E+00  (-0.5802595E-01)
 number of electron     125.9999995 magnetization 
 augmentation part       49.6902651 magnetization 

 Broyden mixing:
  rms(total) = 0.14091E+00    rms(broyden)= 0.14088E+00
  rms(prec ) = 0.15668E+00
  weight for this iteration     100.00

 eigenvalues of (default mixing * dielectric matrix)
  average eigenvalue GAMMA=   0.5064
  0.6839  0.3289

 Free energy of the ion-electron system (eV)
  ---------------------------------------------------
  alpha Z        PSCENC =       179.79803298
  Ewald energy   TEWEN  =     43294.88205886
  -Hartree energ DENC   =    -53834.61853776
  -exchange      EXHF   =         0.00000000
  -V(xc)+E(xc)   XCENC  =       -96.64436978
  PAW double counting   =     11492.69147380   -10989.79280638
  entropy T*S    EENTRO =        -0.01436960
  eigenvalues    EBANDS =      -494.82987250
  atomic energy  EATOM  =     10406.82048304
  Solvation  Ediel_sol  =         0.00000000
  ---------------------------------------------------
  free energy    TOTEN  =       -41.70790733 eV

  energy without entropy =      -41.69353773  energy(sigma->0) =      -41.70072253


--------------------------------------------------------------------------------------------------------




--------------------------------------- Iteration      1(   4)  ---------------------------------------


    POTLOK:  cpu time    0.0363: real time    0.0366
    SETDIJ:  cpu time    0.0034: real time    0.0034
    EDDIAG:  cpu time    1.0575: real time    1.0606
  RMM-DIIS:  cpu time    4.7344: real time    4.7490
    ORTHCH:  cpu time    0.1097: real time    0.1100
       DOS:  cpu time    0.0032: real time    0.0032
    CHARGE:  cpu time    0.3381: real time    0.3391
    MIXING:  cpu time    0.0018: real time    0.0018
    --------------------------------------------
      LOOP:  cpu time    6.2845: real time    6.3037

 eigenvalue-minimisations  :  8197
 total energy-change (2. order) : 0.1668578E-01  (-0.6089826E-02)
 number of electron     125.9999995 magnetization 
 augmentation part       49.6992311 magnetization 

 Broyden mixing:
  rms(total) = 0.44111E-01    rms(broyden)= 0.44088E-01
  rms(prec ) = 0.50146E-01
  weight for this iteration     100.00

 eigenvalues of (default mixing * dielectric matrix)
  average eigenvalue GAMMA=   0.6251
  0.7803  0.7803  0.3147

 Free energy of the ion-electron system (eV)
  ---------------------------------------------------
  alpha Z        PSCENC =       179.79803298
  Ewald energy   TEWEN  =     43294.88205886
  -Hartree energ DENC   =    -53836.44529634
  -exchange      EXHF   =         0.00000000
  -V(xc)+E(xc)   XCENC  =       -96.62305210
  PAW double counting   =     11491.55013226   -10988.60864983
  entropy T*S    EENTRO =        -0.01596913
  eigenvalues    EBANDS =      -493.04896129
  atomic energy  EATOM  =     10406.82048304
  Solvation  Ediel_sol  =         0.00000000
  ---------------------------------------------------
  free energy    TOTEN  =       -41.69122155 eV

  energy without entropy =      -41.67525242  energy(sigma->0) =      -41.68323698


--------------------------------------------------------------------------------------------------------




--------------------------------------- Iteration      1(   5)  ---------------------------------------


    POTLOK:  cpu time    0.0361: real time    0.0364
    SETDIJ:  cpu time    0.0035: real time    0.0035
    EDDIAG:  cpu time    1.0431: real time    1.0466
  RMM-DIIS:  cpu time    4.6059: real time    4.6202
    ORTHCH:  cpu time    0.1097: real time    0.1100
       DOS:  cpu time    0.0032: real time    0.0032
    CHARGE:  cpu time    0.3390: real time    0.3399
    MIXING:  cpu time    0.0023: real time    0.0023
    --------------------------------------------
      LOOP:  cpu time    6.1427: real time    6.1620

 eigenvalue-minimisations  :  7969
 total energy-change (2. order) :-0.1277242E-02  (-0.8724620E-03)
 number of electron     125.9999995 magnetization 
 augmentation part       49.7492347 magnetization 

 Broyden mixing:
  rms(total) = 0.53203E-01    rms(broyden)= 0.53202E-01
  rms(prec ) = 0.62932E-01
  weight for this iteration     100.00

 eigenvalues of (default mixing * dielectric matrix)
  average eigenvalue GAMMA=   0.6770
  1.0498  1.0498  0.3042  0.3042

 Free energy of the ion-electron system (eV)
  ---------------------------------------------------
  alpha Z        PSCENC =       179.79803298
  Ewald energy   TEWEN  =     43294.88205886
  -Hartree energ DENC   =    -53836.32135394
  -exchange      EXHF   =         0.00000000
  -V(xc)+E(xc)   XCENC  =       -96.63468281
  PAW double counting   =     11489.49351646   -10986.63031242
  entropy T*S    EENTRO =        -0.01522051
  eigenvalues    EBANDS =      -493.08502046
  atomic energy  EATOM  =     10406.82048304
  Solvation  Ediel_sol  =         0.00000000
  ---------------------------------------------------
  free energy    TOTEN  =       -41.69249879 eV

  energy without entropy =      -41.67727829  energy(sigma->0) =      -41.68488854


--------------------------------------------------------------------------------------------------------




--------------------------------------- Iteration      1(   6)  ---------------------------------------


    POTLOK:  cpu time    0.0361: real time    0.0364
    SETDIJ:  cpu time    0.0034: real time    0.0034
    EDDIAG:  cpu time    1.0458: real time    1.0489
  RMM-DIIS:  cpu time    4.8273: real time    4.8419
    ORTHCH:  cpu time    0.1099: real time    0.1102
       DOS:  cpu time    0.0032: real time    0.0032
    CHARGE:  cpu time    0.3378: real time    0.3387
    MIXING:  cpu time    0.0019: real time    0.0019
    --------------------------------------------
      LOOP:  cpu time    6.3655: real time    6.3847

 eigenvalue-minimisations  :  8317
 total energy-change (2. order) : 0.3377323E-02  (-0.1990262E-03)
 number of electron     125.9999995 magnetization 
 augmentation part       49.7287430 magnetization 

 Broyden mixing:
  rms(total) = 0.18134E-01    rms(broyden)= 0.18133E-01
  rms(prec ) = 0.19969E-01
  weight for this iteration     100.00

 eigenvalues of (default mixing * dielectric matrix)
  average eigenvalue GAMMA=   0.7328
  1.4392  1.0268  0.5607  0.3186  0.3186

 Free energy of the ion-electron system (eV)
  ---------------------------------------------------
  alpha Z        PSCENC =       179.79803298
  Ewald energy   TEWEN  =     43294.88205886
  -Hartree energ DENC   =    -53837.74122051
  -exchange      EXHF   =         0.00000000
  -V(xc)+E(xc)   XCENC  =       -96.62708543
  PAW double counting   =     11488.46292104   -10985.58294735
  entropy T*S    EENTRO =        -0.01584074
  eigenvalues    EBANDS =      -491.68552338
  atomic energy  EATOM  =     10406.82048304
  Solvation  Ediel_sol  =         0.00000000
  ---------------------------------------------------
  free energy    TOTEN  =       -41.68912147 eV

  energy without entropy =      -41.67328073  energy(sigma->0) =      -41.68120110


--------------------------------------------------------------------------------------------------------




--------------------------------------- Iteration      1(   7)  ---------------------------------------


    POTLOK:  cpu time    0.0366: real time    0.0370
    SETDIJ:  cpu time    0.0035: real time    0.0035
    EDDIAG:  cpu time    1.0417: real time    1.0448
  RMM-DIIS:  cpu time    4.3445: real time    4.3586
    ORTHCH:  cpu time    0.1097: real time    0.1100
       DOS:  cpu time    0.0032: real time    0.0032
    CHARGE:  cpu time    0.3388: real time    0.3397
    MIXING:  cpu time    0.0016: real time    0.0016
    --------------------------------------------
      LOOP:  cpu time    5.8797: real time    5.8984

 eigenvalue-minimisations  :  7416
 total energy-change (2. order) : 0.1809352E-03  (-0.1244232E-03)
 number of electron     125.9999995 magnetization 
 augmentation part       49.7233301 magnetization 

 Broyden mixing:
  rms(total) = 0.18307E-01    rms(broyden)= 0.18306E-01
  rms(prec ) = 0.20163E-01
  weight for this iteration     100.00

 eigenvalues of (default mixing * dielectric matrix)
  average eigenvalue GAMMA=   0.8161
  2.1345  1.0673  0.7363  0.3603  0.3316  0.2671

 Free energy of the ion-electron system (eV)
  ---------------------------------------------------
  alpha Z        PSCENC =       179.79803298
  Ewald energy   TEWEN  =     43294.88205886
  -Hartree energ DENC   =    -53838.71333682
  -exchange      EXHF   =         0.00000000
  -V(xc)+E(xc)   XCENC  =       -96.62042849
  PAW double counting   =     11487.69383453   -10984.81194243
  entropy T*S    EENTRO =        -0.01517838
  eigenvalues    EBANDS =      -490.72246384
  atomic energy  EATOM  =     10406.82048304
  Solvation  Ediel_sol  =         0.00000000
  ---------------------------------------------------
  free energy    TOTEN  =       -41.68894053 eV

  energy without entropy =      -41.67376216  energy(sigma->0) =      -41.68135134


--------------------------------------------------------------------------------------------------------




--------------------------------------- Iteration      1(   8)  ---------------------------------------


    POTLOK:  cpu time    0.0355: real time    0.0358
    SETDIJ:  cpu time    0.0034: real time    0.0034
    EDDIAG:  cpu time    1.0491: real time    1.0522
  RMM-DIIS:  cpu time    3.7787: real time    3.7907
    ORTHCH:  cpu time    0.1111: real time    0.1114
       DOS:  cpu time    0.0032: real time    0.0032
    CHARGE:  cpu time    0.3382: real time    0.3392
    MIXING:  cpu time    0.0017: real time    0.0017
    --------------------------------------------
      LOOP:  cpu time    5.3210: real time    5.3377

 eigenvalue-minimisations  :  6262
 total energy-change (2. order) : 0.3959234E-03  (-0.5537405E-04)
 number of electron     125.9999995 magnetization 
 augmentation part       49.7263305 magnetization 

 Broyden mixing:
  rms(total) = 0.76547E-02    rms(broyden)= 0.76538E-02
  rms(prec ) = 0.94748E-02
  weight for this iteration     100.00

 eigenvalues of (default mixing * dielectric matrix)
  average eigenvalue GAMMA=   0.8307
  2.3211  1.2155  0.6843  0.6843  0.3216  0.3216  0.2665

 Free energy of the ion-electron system (eV)
  ---------------------------------------------------
  alpha Z        PSCENC =       179.79803298
  Ewald energy   TEWEN  =     43294.88205886
  -Hartree energ DENC   =    -53839.52628648
  -exchange      EXHF   =         0.00000000
  -V(xc)+E(xc)   XCENC  =       -96.61507331
  PAW double counting   =     11486.75106607   -10983.87953064
  entropy T*S    EENTRO =        -0.01580462
  eigenvalues    EBANDS =      -489.90349054
  atomic energy  EATOM  =     10406.82048304
  Solvation  Ediel_sol  =         0.00000000
  ---------------------------------------------------
  free energy    TOTEN  =       -41.68854461 eV

  energy without entropy =      -41.67273999  energy(sigma->0) =      -41.68064230


--------------------------------------------------------------------------------------------------------




--------------------------------------- Iteration      1(   9)  ---------------------------------------


    POTLOK:  cpu time    0.0375: real time    0.0378
    SETDIJ:  cpu time    0.0034: real time    0.0034
    EDDIAG:  cpu time    1.0406: real time    1.0434
  RMM-DIIS:  cpu time    2.9996: real time    3.0090
    ORTHCH:  cpu time    0.1098: real time    0.1101
       DOS:  cpu time    0.0031: real time    0.0031
    --------------------------------------------
      LOOP:  cpu time    4.1940: real time    4.2069

 eigenvalue-minimisations  :  4795
 total energy-change (2. order) : 0.9060371E-04  (-0.8027262E-05)
 number of electron     125.9999995 magnetization 
 augmentation part       49.7263305 magnetization 

 Free energy of the ion-electron system (eV)
  ---------------------------------------------------
  alpha Z        PSCENC =       179.79803298
  Ewald energy   TEWEN  =     43294.88205886
  -Hartree energ DENC   =    -53840.16096636
  -exchange      EXHF   =         0.00000000
  -V(xc)+E(xc)   XCENC  =       -96.61026157
  PAW double counting   =     11486.27897335   -10983.40487340
  entropy T*S    EENTRO =        -0.01571562
  eigenvalues    EBANDS =      -489.27618529
  atomic energy  EATOM  =     10406.82048304
  Solvation  Ediel_sol  =         0.00000000
  ---------------------------------------------------
  free energy    TOTEN  =       -41.68845401 eV

  energy without entropy =      -41.67273839  energy(sigma->0) =      -41.68059620


--------------------------------------------------------------------------------------------------------




 average (electrostatic) potential at core
  the test charge radii are     1.1199  1.2098
  (the norm of the test charge is              1.0000)
       1 -80.8292       2 -80.8292       3 -81.0738       4 -81.0738       5 -81.0793
       6 -81.0793       7 -73.9211       8 -73.9211       9 -74.1986      10 -74.1986
      11 -74.1815      12 -74.1815
 
 
 
 E-fermi :  -1.3320     XC(G=0):  -4.2571     alpha+bet : -4.0348


 k-point     1 :       0.0625    0.0625    0.0000
  band No.  band energies     occupation 
      1      -8.4232      2.00000
      2      -7.2282      2.00000
      3      -6.8880      2.00000
      4      -6.8766      2.00000
      5      -6.8730      2.00000
      6      -6.2185      2.00000
      7      -6.0659      2.00000
      8      -6.0280      2.00000
      9      -6.0116      2.00000
     10      -5.9622      2.00000
     11      -5.7482      2.00000
     12      -5.6394      2.00000
     13      -5.4769      2.00000
     14      -5.4460      2.00000
     15      -5.3839      2.00000
     16      -5.2903      2.00000
     17      -5.0592      2.00000
     18      -4.9680      2.00000
     19      -4.9368      2.00000
     20      -4.8621      2.00000
     21      -4.5083      2.00000
     22      -4.2071      2.00000
     23      -4.1973      2.00000
     24      -4.1616      2.00000
     25      -4.1002      2.00000
     26      -4.0924      2.00000
     27      -4.0730      2.00000
     28      -4.0630      2.00000
     29      -4.0495      2.00000
     30      -3.9784      2.00000
     31      -3.7598      2.00000
     32      -3.7441      2.00000
     33      -3.6223      2.00000
     34      -3.4731      2.00000
     35      -3.4312      2.00000
     36      -3.3436      2.00000
     37      -3.2494      2.00000
     38      -3.0840      2.00000
     39      -3.0103      2.00000
     40      -2.8737      2.00000
     41      -2.6343      2.00000
     42      -2.6135      2.00000
     43      -2.5470      2.00000
     44      -2.5327      2.00000
     45      -2.4562      2.00000
     46      -2.3503      2.00000
     47      -2.2968      2.00000
     48      -2.2298      2.00000
     49      -2.0900      2.00000
     50      -1.9646      2.00000
     51      -1.8535      2.00000
     52      -1.8285      2.00000
     53      -1.7566      2.00000
     54      -1.7323      2.00000
     55      -1.6491      2.00000
     56      -1.6085      2.00000
     57      -1.5699      2.00000
     58      -1.5079      2.00000
     59      -1.3751      1.77654
     60      -1.3123      0.57666
     61      -1.2366      0.00693
     62      -1.1990      0.00017
     63      -1.1795      0.00002
     64      -0.1640      0.00000
     65       0.0935      0.00000
     66       0.1210      0.00000
     67       0.1434      0.00000
     68       0.8439      0.00000
     69       1.1070      0.00000
     70       1.1231      0.00000
     71       1.8325      0.00000
     72       1.9273      0.00000
     73       2.1190      0.00000
     74       3.0056      0.00000
     75       3.3066      0.00000
     76       3.3360      0.00000

 k-point     2 :       0.0000    0.0625    0.0000
  band No.  band energies     occupation 
      1      -8.4231      2.00000
      2      -7.2223      2.00000
      3      -6.8913      2.00000
      4      -6.8746      2.00000
      5      -6.8719      2.00000
      6      -6.2123      2.00000
      7      -6.0658      2.00000
      8      -6.0279      2.00000
      9      -6.0122      2.00000
     10      -5.9640      2.00000
     11      -5.7460      2.00000
     12      -5.6474      2.00000
     13      -5.4807      2.00000
     14      -5.4409      2.00000
     15      -5.3852      2.00000
     16      -5.2854      2.00000
     17      -5.0610      2.00000
     18      -4.9686      2.00000
     19      -4.9362      2.00000
     20      -4.8640      2.00000
     21      -4.5096      2.00000
     22      -4.2089      2.00000
     23      -4.1955      2.00000
     24      -4.1628      2.00000
     25      -4.1110      2.00000
     26      -4.0955      2.00000
     27      -4.0892      2.00000
     28      -4.0654      2.00000
     29      -4.0377      2.00000
     30      -3.9791      2.00000
     31      -3.7838      2.00000
     32      -3.7191      2.00000
     33      -3.6028      2.00000
     34      -3.4941      2.00000
     35      -3.4335      2.00000
     36      -3.3372      2.00000
     37      -3.2409      2.00000
     38      -3.0662      2.00000
     39      -3.0264      2.00000
     40      -2.8643      2.00000
     41      -2.6528      2.00000
     42      -2.6266      2.00000
     43      -2.5224      2.00000
     44      -2.4988      2.00000
     45      -2.4564      2.00000
     46      -2.3770      2.00000
     47      -2.3462      2.00000
     48      -2.1794      2.00000
     49      -2.1133      2.00000
     50      -1.9432      2.00000
     51      -1.8626      2.00000
     52      -1.8554      2.00000
     53      -1.7514      2.00000
     54      -1.7219      2.00000
     55      -1.6277      2.00000
     56      -1.5984      2.00000
     57      -1.5604      2.00000
     58      -1.5171      2.00000
     59      -1.4099      1.97229
     60      -1.2989      0.34898
     61      -1.2191      0.00140
     62      -1.2148      0.00091
     63      -1.1809      0.00002
     64      -0.1830      0.00000
     65       0.1126      0.00000
     66       0.1174      0.00000
     67       0.1407      0.00000
     68       0.7419      0.00000
     69       1.1654      0.00000
     70       1.2038      0.00000
     71       1.8568      0.00000
     72       1.8877      0.00000
     73       2.1148      0.00000
     74       3.0882      0.00000
     75       3.2258      0.00000
     76       3.3600      0.00000

 k-point     3 :       0.1875    0.0625    0.0000
  band No.  band energies     occupation 
      1      -8.2402      2.00000
      2      -7.0654      2.00000
      3      -6.8278      2.00000
      4      -6.7733      2.00000
      5      -6.6992      2.00000
      6      -6.1065      2.00000
      7      -6.0069      2.00000
      8      -5.9666      2.00000
      9      -5.9526      2.00000
     10      -5.8672      2.00000
     11      -5.6507      2.00000
     12      -5.5547      2.00000
     13      -5.4079      2.00000
     14      -5.3826      2.00000
     15      -5.3172      2.00000
     16      -5.2421      2.00000
     17      -5.0442      2.00000
     18      -5.0200      2.00000
     19      -4.8262      2.00000
     20      -4.8234      2.00000
     21      -4.5337      2.00000
     22      -4.2705      2.00000
     23      -4.2137      2.00000
     24      -4.1865      2.00000
     25      -4.1464      2.00000
     26      -4.1389      2.00000
     27      -4.0938      2.00000
     28      -4.0487      2.00000
     29      -3.9968      2.00000
     30      -3.9413      2.00000
     31      -3.9027      2.00000
     32      -3.7294      2.00000
     33      -3.5943      2.00000
     34      -3.5537      2.00000
     35      -3.4679      2.00000
     36      -3.3613      2.00000
     37      -3.3018      2.00000
     38      -3.1803      2.00000
     39      -3.0817      2.00000
     40      -3.0116      2.00000
     41      -2.9835      2.00000
     42      -2.9334      2.00000
     43      -2.8059      2.00000
     44      -2.5600      2.00000
     45      -2.5296      2.00000
     46      -2.4737      2.00000
     47      -2.4422      2.00000
     48      -2.2553      2.00000
     49      -2.1897      2.00000
     50      -2.0517      2.00000
     51      -1.9856      2.00000
     52      -1.9352      2.00000
     53      -1.8655      2.00000
     54      -1.7909      2.00000
     55      -1.7630      2.00000
     56      -1.6719      2.00000
     57      -1.5996      2.00000
     58      -1.5322      2.00000
     59      -1.4526      1.99935
     60      -1.4235      1.99028
     61      -1.3780      1.80616
     62      -1.3189      0.71067
     63      -1.2413      0.01025
     64      -0.9019      0.00000
     65      -0.4249      0.00000
     66      -0.1298      0.00000
     67       0.4654      0.00000
     68       0.5829      0.00000
     69       0.6742      0.00000
     70       1.5116      0.00000
     71       2.1504      0.00000
     72       2.4315      0.00000
     73       2.6255      0.00000
     74       3.2883      0.00000
     75       3.4618      0.00000
     76       3.7987      0.00000

 k-point     4 :       0.1250    0.1875    0.0000
  band No.  band energies     occupation 
      1      -8.2405      2.00000
      2      -7.0856      2.00000
      3      -6.8233      2.00000
      4      -6.7772      2.00000
      5      -6.6992      2.00000
      6      -6.1267      2.00000
      7      -6.0062      2.00000
      8      -5.9671      2.00000
      9      -5.9511      2.00000
     10      -5.8590      2.00000
     11      -5.6534      2.00000
     12      -5.5358      2.00000
     13      -5.3974      2.00000
     14      -5.3925      2.00000
     15      -5.3183      2.00000
     16      -5.2547      2.00000
     17      -5.0445      2.00000
     18      -5.0129      2.00000
     19      -4.8237      2.00000
     20      -4.8208      2.00000
     21      -4.5296      2.00000
     22      -4.2688      2.00000
     23      -4.2047      2.00000
     24      -4.1918      2.00000
     25      -4.1549      2.00000
     26      -4.0907      2.00000
     27      -4.0755      2.00000
     28      -4.0581      2.00000
     29      -3.9845      2.00000
     30      -3.9362      2.00000
     31      -3.8923      2.00000
     32      -3.7388      2.00000
     33      -3.6507      2.00000
     34      -3.5013      2.00000
     35      -3.4668      2.00000
     36      -3.3797      2.00000
     37      -3.3144      2.00000
     38      -3.1934      2.00000
     39      -3.1050      2.00000
     40      -3.0362      2.00000
     41      -2.9735      2.00000
     42      -2.8794      2.00000
     43      -2.8425      2.00000
     44      -2.5937      2.00000
     45      -2.4954      2.00000
     46      -2.4158      2.00000
     47      -2.3580      2.00000
     48      -2.3355      2.00000
     49      -2.2213      2.00000
     50      -2.1214      2.00000
     51      -1.9255      2.00000
     52      -1.8889      2.00000
     53      -1.8888      2.00000
     54      -1.7982      2.00000
     55      -1.7752      2.00000
     56      -1.6928      2.00000
     57      -1.5829      2.00000
     58      -1.5130      2.00000
     59      -1.4801      1.99997
     60      -1.4635      1.99980
     61      -1.3428      1.23980
     62      -1.2849      0.18222
     63      -1.2658      0.06117
     64      -0.8762      0.00000
     65      -0.4414      0.00000
     66      -0.0210      0.00000
     67       0.3528      0.00000
     68       0.5769      0.00000
     69       0.6741      0.00000
     70       1.4775      0.00000
     71       2.1677      0.00000
     72       2.4512      0.00000
     73       2.5792      0.00000
     74       3.2984      0.00000
     75       3.4637      0.00000
     76       3.7909      0.00000

 k-point     5 :      -0.0625    0.1250    0.0000
  band No.  band energies     occupation 
      1      -8.2396      2.00000
      2      -7.0369      2.00000
      3      -6.8278      2.00000
      4      -6.7770      2.00000
      5      -6.6963      2.00000
      6      -6.0760      2.00000
      7      -6.0057      2.00000
      8      -5.9656      2.00000
      9      -5.9548      2.00000
     10      -5.8707      2.00000
     11      -5.6378      2.00000
     12      -5.5950      2.00000
     13      -5.4256      2.00000
     14      -5.3589      2.00000
     15      -5.3272      2.00000
     16      -5.2180      2.00000
     17      -5.0434      2.00000
     18      -5.0282      2.00000
     19      -4.8357      2.00000
     20      -4.8231      2.00000
     21      -4.5407      2.00000
     22      -4.2764      2.00000
     23      -4.2187      2.00000
     24      -4.1933      2.00000
     25      -4.1787      2.00000
     26      -4.1367      2.00000
     27      -4.1340      2.00000
     28      -4.0717      2.00000
     29      -4.0003      2.00000
     30      -3.9308      2.00000
     31      -3.9205      2.00000
     32      -3.7048      2.00000
     33      -3.6361      2.00000
     34      -3.5045      2.00000
     35      -3.4795      2.00000
     36      -3.3243      2.00000
     37      -3.2695      2.00000
     38      -3.1599      2.00000
     39      -3.0879      2.00000
     40      -3.0054      2.00000
     41      -2.9993      2.00000
     42      -2.8879      2.00000
     43      -2.8347      2.00000
     44      -2.6857      2.00000
     45      -2.5194      2.00000
     46      -2.4564      2.00000
     47      -2.4398      2.00000
     48      -2.2252      2.00000
     49      -2.2115      2.00000
     50      -2.0269      2.00000
     51      -1.9924      2.00000
     52      -1.9350      2.00000
     53      -1.8491      2.00000
     54      -1.8074      2.00000
     55      -1.7027      2.00000
     56      -1.6316      2.00000
     57      -1.6303      2.00000
     58      -1.5444      2.00000
     59      -1.4897      1.99999
     60      -1.4079      1.96820
     61      -1.3675      1.68432
     62      -1.3439      1.26372
     63      -1.2313      0.00439
     64      -0.9043      0.00000
     65      -0.4517      0.00000
     66      -0.1552      0.00000
     67       0.5445      0.00000
     68       0.5707      0.00000
     69       0.6730      0.00000
     70       1.5149      0.00000
     71       2.1882      0.00000
     72       2.3747      0.00000
     73       2.6672      0.00000
     74       3.3358      0.00000
     75       3.4840      0.00000
     76       3.7963      0.00000

 k-point     6 :       0.3125    0.0625    0.0000
  band No.  band energies     occupation 
      1      -7.8360      2.00000
      2      -6.7474      2.00000
      3      -6.6938      2.00000
      4      -6.4712      2.00000
      5      -6.3534      2.00000
      6      -5.9028      2.00000
      7      -5.8632      2.00000
      8      -5.8334      2.00000
      9      -5.8325      2.00000
     10      -5.6914      2.00000
     11      -5.4547      2.00000
     12      -5.3927      2.00000
     13      -5.2661      2.00000
     14      -5.2436      2.00000
     15      -5.1674      2.00000
     16      -5.1652      2.00000
     17      -5.1319      2.00000
     18      -4.9623      2.00000
     19      -4.7699      2.00000
     20      -4.6124      2.00000
     21      -4.5680      2.00000
     22      -4.4521      2.00000
     23      -4.3102      2.00000
     24      -4.2982      2.00000
     25      -4.2742      2.00000
     26      -4.1899      2.00000
     27      -4.1268      2.00000
     28      -4.1111      2.00000
     29      -3.9970      2.00000
     30      -3.9960      2.00000
     31      -3.9141      2.00000
     32      -3.8708      2.00000
     33      -3.7532      2.00000
     34      -3.7140      2.00000
     35      -3.6600      2.00000
     36      -3.6528      2.00000
     37      -3.4704      2.00000
     38      -3.3884      2.00000
     39      -3.2816      2.00000
     40      -3.2607      2.00000
     41      -3.2366      2.00000
     42      -3.0993      2.00000
     43      -2.9270      2.00000
     44      -2.9021      2.00000
     45      -2.8388      2.00000
     46      -2.7186      2.00000
     47      -2.6361      2.00000
     48      -2.5550      2.00000
     49      -2.3674      2.00000
     50      -2.2042      2.00000
     51      -2.1945      2.00000
     52      -2.0754      2.00000
     53      -2.0568      2.00000
     54      -1.9495      2.00000
     55      -1.9479      2.00000
     56      -1.8940      2.00000
     57      -1.8436      2.00000
     58      -1.7715      2.00000
     59      -1.5838      2.00000
     60      -1.5707      2.00000
     61      -1.4871      1.99999
     62      -1.4720      1.99992
     63      -1.4307      1.99472
     64      -1.1445      0.00000
     65      -0.7484      0.00000
     66      -0.4384      0.00000
     67       0.4435      0.00000
     68       0.7153      0.00000
     69       1.3427      0.00000
     70       1.4759      0.00000
     71       1.8921      0.00000
     72       2.8534      0.00000
     73       3.1653      0.00000
     74       3.7710      0.00000
     75       3.9298      0.00000
     76       4.1378      0.00000

 k-point     7 :       0.2500    0.3125    0.0000
  band No.  band energies     occupation 
      1      -7.8384      2.00000
      2      -6.8286      2.00000
      3      -6.7277      2.00000
      4      -6.4772      2.00000
      5      -6.3537      2.00000
      6      -5.9650      2.00000
      7      -5.8829      2.00000
      8      -5.8433      2.00000
      9      -5.8273      2.00000
     10      -5.6390      2.00000
     11      -5.4362      2.00000
     12      -5.3427      2.00000
     13      -5.3060      2.00000
     14      -5.2434      2.00000
     15      -5.1635      2.00000
     16      -5.1631      2.00000
     17      -5.1379      2.00000
     18      -4.9234      2.00000
     19      -4.7509      2.00000
     20      -4.5876      2.00000
     21      -4.5683      2.00000
     22      -4.4405      2.00000
     23      -4.3101      2.00000
     24      -4.2632      2.00000
     25      -4.2371      2.00000
     26      -4.1777      2.00000
     27      -4.0547      2.00000
     28      -4.0520      2.00000
     29      -3.9996      2.00000
     30      -3.8795      2.00000
     31      -3.8591      2.00000
     32      -3.8498      2.00000
     33      -3.7733      2.00000
     34      -3.7569      2.00000
     35      -3.7017      2.00000
     36      -3.6495      2.00000
     37      -3.5189      2.00000
     38      -3.4246      2.00000
     39      -3.3687      2.00000
     40      -3.3566      2.00000
     41      -3.2233      2.00000
     42      -2.9413      2.00000
     43      -2.9360      2.00000
     44      -2.8606      2.00000
     45      -2.8360      2.00000
     46      -2.7387      2.00000
     47      -2.6890      2.00000
     48      -2.5409      2.00000
     49      -2.3774      2.00000
     50      -2.3651      2.00000
     51      -2.1440      2.00000
     52      -2.0543      2.00000
     53      -2.0254      2.00000
     54      -1.9727      2.00000
     55      -1.9479      2.00000
     56      -1.8569      2.00000
     57      -1.8147      2.00000
     58      -1.7430      2.00000
     59      -1.6889      2.00000
     60      -1.6462      2.00000
     61      -1.5381      2.00000
     62      -1.4013      1.94986
     63      -1.3121      0.57224
     64      -1.1478      0.00000
     65      -0.6710      0.00000
     66      -0.4573      0.00000
     67       0.2619      0.00000
     68       0.7217      0.00000
     69       1.3378      0.00000
     70       1.6243      0.00000
     71       1.7334      0.00000
     72       2.7736      0.00000
     73       3.1645      0.00000
     74       3.7730      0.00000
     75       3.9325      0.00000
     76       4.1403      0.00000

 k-point     8 :      -0.0625    0.2500    0.0000
  band No.  band energies     occupation 
      1      -7.8351      2.00000
      2      -6.7474      2.00000
      3      -6.6494      2.00000
      4      -6.4768      2.00000
      5      -6.3502      2.00000
      6      -5.9006      2.00000
      7      -5.8406      2.00000
      8      -5.8396      2.00000
      9      -5.8002      2.00000
     10      -5.6840      2.00000
     11      -5.4452      2.00000
     12      -5.4203      2.00000
     13      -5.3010      2.00000
     14      -5.2124      2.00000
     15      -5.1940      2.00000
     16      -5.1639      2.00000
     17      -5.0908      2.00000
     18      -4.9653      2.00000
     19      -4.7841      2.00000
     20      -4.6234      2.00000
     21      -4.5695      2.00000
     22      -4.4452      2.00000
     23      -4.3531      2.00000
     24      -4.3520      2.00000
     25      -4.2749      2.00000
     26      -4.1958      2.00000
     27      -4.1496      2.00000
     28      -4.1419      2.00000
     29      -4.0239      2.00000
     30      -4.0221      2.00000
     31      -3.9300      2.00000
     32      -3.8183      2.00000
     33      -3.8057      2.00000
     34      -3.7068      2.00000
     35      -3.6530      2.00000
     36      -3.6436      2.00000
     37      -3.4545      2.00000
     38      -3.4167      2.00000
     39      -3.2741      2.00000
     40      -3.2621      2.00000
     41      -3.1870      2.00000
     42      -3.1186      2.00000
     43      -2.9618      2.00000
     44      -2.9360      2.00000
     45      -2.8167      2.00000
     46      -2.7105      2.00000
     47      -2.6105      2.00000
     48      -2.4463      2.00000
     49      -2.3938      2.00000
     50      -2.2356      2.00000
     51      -2.1699      2.00000
     52      -2.1109      2.00000
     53      -2.0341      2.00000
     54      -1.9847      2.00000
     55      -1.8865      2.00000
     56      -1.8582      2.00000
     57      -1.7933      2.00000
     58      -1.7346      2.00000
     59      -1.6499      2.00000
     60      -1.6021      2.00000
     61      -1.4867      1.99999
     62      -1.4699      1.99990
     63      -1.4455      1.99866
     64      -1.1482      0.00000
     65      -0.7369      0.00000
     66      -0.4425      0.00000
     67       0.4159      0.00000
     68       0.7181      0.00000
     69       1.3396      0.00000
     70       1.6959      0.00000
     71       1.7003      0.00000
     72       2.8643      0.00000
     73       3.1718      0.00000
     74       3.7632      0.00000
     75       3.9412      0.00000
     76       4.1264      0.00000

 k-point     9 :       0.4375    0.0625    0.0000
  band No.  band energies     occupation 
      1      -7.2942      2.00000
      2      -6.7430      2.00000
      3      -6.2173      2.00000
      4      -6.0354      2.00000
      5      -5.9160      2.00000
[...]
     61      -1.7113      2.00000
     62      -1.5868      2.00000
     63      -1.3886      1.89033
     64      -1.2793      0.13598
     65       0.0120      0.00000
     66       0.0280      0.00000
     67       0.1049      0.00000
     68       0.6887      0.00000
     69       0.7394      0.00000
     70       1.2664      0.00000
     71       2.4506      0.00000
     72       3.3476      0.00000
     73       3.4550      0.00000
     74       3.5240      0.00000
     75       4.3807      0.00000
     76       4.8445      0.00000

 k-point    50 :       0.0000    0.4375    0.0000
  band No.  band energies     occupation 
      1      -7.1819      2.00000
      2      -6.8065      2.00000
      3      -6.1140      2.00000
      4      -5.9046      2.00000
      5      -5.8792      2.00000
      6      -5.8781      2.00000
      7      -5.6919      2.00000
      8      -5.6912      2.00000
      9      -5.4874      2.00000
     10      -5.4655      2.00000
     11      -5.2030      2.00000
     12      -5.1851      2.00000
     13      -5.1436      2.00000
     14      -5.0761      2.00000
     15      -5.0248      2.00000
     16      -4.9669      2.00000
     17      -4.9294      2.00000
     18      -4.9150      2.00000
     19      -4.7981      2.00000
     20      -4.7250      2.00000
     21      -4.6713      2.00000
     22      -4.6648      2.00000
     23      -4.6284      2.00000
     24      -4.6009      2.00000
     25      -4.5199      2.00000
     26      -4.5185      2.00000
     27      -4.4323      2.00000
     28      -4.3967      2.00000
     29      -4.2701      2.00000
     30      -4.1999      2.00000
     31      -4.1223      2.00000
     32      -4.0728      2.00000
     33      -4.0661      2.00000
     34      -3.8948      2.00000
     35      -3.7559      2.00000
     36      -3.7387      2.00000
     37      -3.6650      2.00000
     38      -3.6074      2.00000
     39      -3.4382      2.00000
     40      -3.4021      2.00000
     41      -3.2267      2.00000
     42      -3.2076      2.00000
     43      -3.0834      2.00000
     44      -2.8907      2.00000
     45      -2.8841      2.00000
     46      -2.8597      2.00000
     47      -2.7660      2.00000
     48      -2.7041      2.00000
     49      -2.6260      2.00000
     50      -2.5449      2.00000
     51      -2.4884      2.00000
     52      -2.3675      2.00000
     53      -2.2866      2.00000
     54      -2.1200      2.00000
     55      -2.1151      2.00000
     56      -2.0166      2.00000
     57      -2.0165      2.00000
     58      -1.9689      2.00000
     59      -1.8478      2.00000
     60      -1.7700      2.00000
     61      -1.5889      2.00000
     62      -1.5742      2.00000
     63      -1.4031      1.95545
     64      -1.3926      1.91303
     65      -0.0399      0.00000
     66       0.0870      0.00000
     67       0.0982      0.00000
     68       0.5838      0.00000
     69       1.1297      0.00000
     70       1.1933      0.00000
     71       2.4493      0.00000
     72       3.3812      0.00000
     73       3.4956      0.00000
     74       3.5486      0.00000
     75       4.3774      0.00000
     76       4.8408      0.00000

 k-point    51 :      -0.4375    0.4375    0.0000
  band No.  band energies     occupation 
      1      -6.8979      2.00000
      2      -6.8397      2.00000
      3      -6.3914      2.00000
      4      -5.8761      2.00000
      5      -5.7490      2.00000
      6      -5.7252      2.00000
      7      -5.6865      2.00000
      8      -5.6419      2.00000
      9      -5.5861      2.00000
     10      -5.2782      2.00000
     11      -5.2195      2.00000
     12      -5.2012      2.00000
     13      -5.1784      2.00000
     14      -5.0839      2.00000
     15      -5.0737      2.00000
     16      -4.9501      2.00000
     17      -4.9474      2.00000
     18      -4.8532      2.00000
     19      -4.8229      2.00000
     20      -4.8219      2.00000
     21      -4.7224      2.00000
     22      -4.6875      2.00000
     23      -4.6589      2.00000
     24      -4.6373      2.00000
     25      -4.5501      2.00000
     26      -4.4311      2.00000
     27      -4.3070      2.00000
     28      -4.2589      2.00000
     29      -4.1980      2.00000
     30      -3.9735      2.00000
     31      -3.9704      2.00000
     32      -3.8908      2.00000
     33      -3.8689      2.00000
     34      -3.8616      2.00000
     35      -3.8317      2.00000
     36      -3.7151      2.00000
     37      -3.6987      2.00000
     38      -3.6777      2.00000
     39      -3.5586      2.00000
     40      -3.5422      2.00000
     41      -3.4815      2.00000
     42      -3.3129      2.00000
     43      -3.1996      2.00000
     44      -3.0724      2.00000
     45      -2.9989      2.00000
     46      -2.8320      2.00000
     47      -2.8024      2.00000
     48      -2.7770      2.00000
     49      -2.6868      2.00000
     50      -2.6065      2.00000
     51      -2.5632      2.00000
     52      -2.3573      2.00000
     53      -2.2811      2.00000
     54      -2.1442      2.00000
     55      -2.0618      2.00000
     56      -2.0175      2.00000
     57      -1.9946      2.00000
     58      -1.9565      2.00000
     59      -1.8751      2.00000
     60      -1.7640      2.00000
     61      -1.6845      2.00000
     62      -1.6370      2.00000
     63      -1.4259      1.99207
     64      -1.3469      1.32471
     65      -0.8459      0.00000
     66      -0.2553      0.00000
     67       0.3084      0.00000
     68       0.5919      0.00000
     69       1.2413      0.00000
     70       2.1903      0.00000
     71       2.5026      0.00000
     72       2.9395      0.00000
     73       3.1598      0.00000
     74       4.4291      0.00000
     75       4.7327      0.00000
     76       4.7751      0.00000

 k-point    52 :       0.1250   -0.4375    0.0000
  band No.  band energies     occupation 
      1      -6.8566      2.00000
      2      -6.8556      2.00000
      3      -5.9415      2.00000
      4      -5.8993      2.00000
      5      -5.8458      2.00000
      6      -5.7210      2.00000
      7      -5.6795      2.00000
      8      -5.5836      2.00000
      9      -5.4104      2.00000
     10      -5.3955      2.00000
     11      -5.1753      2.00000
     12      -5.1699      2.00000
     13      -5.1069      2.00000
     14      -5.0699      2.00000
     15      -5.0591      2.00000
     16      -5.0178      2.00000
     17      -4.9346      2.00000
     18      -4.9188      2.00000
     19      -4.8718      2.00000
     20      -4.8633      2.00000
     21      -4.8307      2.00000
     22      -4.7328      2.00000
     23      -4.6948      2.00000
     24      -4.6692      2.00000
     25      -4.6417      2.00000
     26      -4.5653      2.00000
     27      -4.4985      2.00000
     28      -4.3586      2.00000
     29      -4.3045      2.00000
     30      -4.2842      2.00000
     31      -4.0896      2.00000
     32      -4.0693      2.00000
     33      -3.8862      2.00000
     34      -3.8861      2.00000
     35      -3.7391      2.00000
     36      -3.7194      2.00000
     37      -3.6627      2.00000
     38      -3.6371      2.00000
     39      -3.4843      2.00000
     40      -3.4271      2.00000
     41      -3.2596      2.00000
     42      -3.2586      2.00000
     43      -3.0510      2.00000
     44      -3.0344      2.00000
     45      -2.8742      2.00000
     46      -2.8666      2.00000
     47      -2.7692      2.00000
     48      -2.7669      2.00000
     49      -2.7176      2.00000
     50      -2.5853      2.00000
     51      -2.4905      2.00000
     52      -2.4153      2.00000
     53      -2.2007      2.00000
     54      -2.1925      2.00000
     55      -2.0491      2.00000
     56      -2.0384      2.00000
     57      -1.9962      2.00000
     58      -1.9678      2.00000
     59      -1.8557      2.00000
     60      -1.7910      2.00000
     61      -1.6204      2.00000
     62      -1.5987      2.00000
     63      -1.4997      2.00000
     64      -1.4253      1.99168
     65      -0.8398      0.00000
     66      -0.1543      0.00000
     67       0.3801      0.00000
     68       0.4763      0.00000
     69       1.2531      0.00000
     70       2.3781      0.00000
     71       2.4841      0.00000
     72       3.0398      0.00000
     73       3.0492      0.00000
     74       4.4338      0.00000
     75       4.7299      0.00000
     76       4.8383      0.00000


--------------------------------------------------------------------------------------------------------


 soft charge-density along one line, spin component           1
         0         1         2         3         4         5         6         7         8         9
 total charge-density along one line
 
 pseudopotential strength for first ion, spin component:           1
 -7.125  -0.001  -0.014  -0.007  -0.005  -7.155  -0.001  -0.014
 -0.001  -7.062  -0.000   0.008  -0.006  -0.001  -7.094  -0.000
 -0.014  -0.000  -7.059  -0.001  -0.008  -0.014  -0.000  -7.092
 -0.007   0.008  -0.001  -7.053  -0.001  -0.007   0.007  -0.001
 -0.005  -0.006  -0.008  -0.001  -7.120  -0.005  -0.006  -0.008
 -7.155  -0.001  -0.014  -0.007  -0.005  -7.160  -0.001  -0.013
 -0.001  -7.094  -0.000   0.007  -0.006  -0.001  -7.102  -0.000
 -0.014  -0.000  -7.092  -0.001  -0.008  -0.013  -0.000  -7.100
 -0.007   0.007  -0.001  -7.085  -0.001  -0.007   0.007  -0.001
 -0.005  -0.006  -0.008  -0.001  -7.150  -0.004  -0.006  -0.008
 -0.004   0.000  -0.017   0.001  -0.002  -0.004   0.000  -0.017
 -0.006   0.001  -0.030   0.001  -0.004  -0.006   0.000  -0.029
 -0.000  -0.015   0.000   0.000   0.000  -0.000  -0.014   0.000
  0.000  -0.000  -0.018  -0.000   0.000   0.000  -0.000  -0.017
  0.000   0.000   0.000  -0.014  -0.000   0.000   0.000   0.000
 -0.000  -0.016   0.000   0.000   0.000  -0.000  -0.016   0.000
  0.000  -0.000  -0.020  -0.000   0.000   0.000  -0.000  -0.019
  0.000   0.000   0.000  -0.016  -0.000   0.000   0.000   0.000
 total augmentation occupancy for first ion, spin component:           1
  2.313  -0.005  -0.188  -0.077  -0.183  -1.003   0.002   0.149  -0.011   0.140  -0.076   0.010   0.001   0.013  -0.022  -0.000
 -0.005   2.368  -0.003  -0.025  -0.071   0.002  -0.743   0.001   0.012  -0.012  -0.009   0.003  -0.119   0.001   0.008  -0.012
 -0.188  -0.003   2.517  -0.005  -0.108   0.150   0.001  -1.039   0.002   0.086   0.588  -0.149   0.001  -0.104   0.001   0.000
 -0.077  -0.025  -0.005   2.339  -0.005  -0.009   0.012   0.002  -0.729   0.002  -0.015   0.005   0.008   0.001  -0.109   0.000
 -0.183  -0.071  -0.108  -0.005   2.524   0.140  -0.013   0.086   0.002  -1.165  -0.044   0.006  -0.024   0.007   0.001   0.003
 -1.003   0.002   0.150  -0.009   0.140   1.443  -0.001  -0.132   0.070  -0.118   0.081  -0.028  -0.001  -0.012   0.028  -0.000
  0.002  -0.743   0.001   0.012  -0.013  -0.001   0.986  -0.000   0.000   0.071   0.005  -0.001   0.140   0.000  -0.009  -0.013
  0.149   0.001  -1.039   0.002   0.086  -0.132  -0.000   1.365  -0.001  -0.076  -0.426   0.075   0.000   0.198   0.000  -0.000
 -0.011   0.012   0.002  -0.729   0.002   0.070   0.000  -0.001   0.986  -0.001   0.008  -0.002  -0.009   0.000   0.130   0.000
  0.140  -0.012   0.086   0.002  -1.165  -0.118   0.071  -0.076  -0.001   1.579   0.047  -0.016   0.029  -0.007  -0.001  -0.003
 -0.076  -0.009   0.588  -0.015  -0.044   0.081   0.005  -0.426   0.008   0.047   1.784  -0.312   0.001   0.171   0.001   0.000
  0.010   0.003  -0.149   0.005   0.006  -0.028  -0.001   0.075  -0.002  -0.016  -0.312   0.058  -0.000  -0.034  -0.000  -0.000
  0.001  -0.119   0.001   0.008  -0.024  -0.001   0.140   0.000  -0.009   0.029   0.001  -0.000   0.165  -0.000   0.006  -0.012
  0.013   0.001  -0.104   0.001   0.007  -0.012   0.000   0.198   0.000  -0.007   0.171  -0.034  -0.000   0.097  -0.000  -0.000
 -0.022   0.008   0.001  -0.109   0.001   0.028  -0.009   0.000   0.130  -0.001   0.001  -0.000   0.006  -0.000   0.171  -0.001
 -0.000  -0.012   0.000   0.000   0.003  -0.000  -0.013  -0.000   0.000  -0.003   0.000  -0.000  -0.012  -0.000  -0.001   0.001
  0.001  -0.000  -0.021  -0.000   0.000   0.000  -0.000  -0.015  -0.000   0.000  -0.023   0.005  -0.000  -0.009  -0.000   0.000
  0.002   0.000   0.000  -0.011  -0.000  -0.003   0.000  -0.000  -0.013  -0.000   0.000  -0.000  -0.001  -0.000  -0.013   0.000


------------------------ aborting loop because EDIFF is reached ----------------------------------------


    CHARGE:  cpu time    0.3382: real time    0.3391
    FORLOC:  cpu time    0.0057: real time    0.0057
    FORNL :  cpu time    1.0603: real time    1.0634
    STRESS:  cpu time    2.3163: real time    2.3233
    FORCOR:  cpu time    0.0428: real time    0.0431
    FORHAR:  cpu time    0.0115: real time    0.0115
    MIXING:  cpu time    0.0020: real time    0.0020
    OFIELD:  cpu time    0.0001: real time    0.0002

  FORCE on cell =-STRESS in cart. coord.  units (eV):
  Direction    XX          YY          ZZ          XY          YZ          ZX
  --------------------------------------------------------------------------------------
  Alpha Z   179.79803   179.79803   179.79803
  Ewald   50351.97704 50355.18673-57412.29397    -2.77967     0.12744     0.22073
  Hartree 52816.40701 52817.06946-51789.85026    -0.57370     0.00621     0.01075
  E(xc)    -609.15509  -608.99279  -614.86342    -0.14055     0.01407     0.02437
  Local  ************************107063.57996     1.27032     0.07090     0.12281
  n-local   -56.03549   -50.84744   -50.68401     0.70275     0.18025     0.06758
  augment   846.53439   844.97944   861.37609     1.34662    -0.12789    -0.22113
  Kinetic  1729.29736  1727.05107  1763.11862     1.82903     0.00568    -0.44774
  Fock        0.00000     0.00000     0.00000     0.00000     0.00000     0.00000
  -------------------------------------------------------------------------------------
  Total      -8.66060    -9.10489     0.18104     0.38477    -0.02731    -0.04729
  in kB     -19.29116   -20.28080     0.40326     0.85706    -0.06082    -0.10535
  external pressure =      -13.06 kB  Pullay stress =        0.00 kB


 VOLUME and BASIS-vectors are now :
 -----------------------------------------------------------------------------
  energy-cutoff  :      450.00
  volume of cell :      719.28
      direct lattice vectors                 reciprocal lattice vectors
     5.795062739  0.000000000  0.000000000     0.172560686 -0.099627958  0.000000000
     2.897531369  5.018671548  0.000000000     0.000000000  0.199255917  0.000000000
     0.000000000  0.000000000 24.731648912     0.000000000  0.000000000  0.040434021

  length of vectors
     5.795062739  5.795062739 24.731648912     0.199255917  0.199255917  0.040434021


 FORCES acting on ions
    electron-ion (+dipol)            ewald-force                    non-local-force                 convergence-correction
 -----------------------------------------------------------------------------------------------
   0.157E+00 0.908E-01 0.184E+04   -.134E+00 -.773E-01 -.183E+04   -.249E-01 -.144E-01 -.272E+01   0.433E-02 0.250E-02 -.300E-01
   0.157E+00 0.908E-01 0.184E+04   -.134E+00 -.775E-01 -.183E+04   -.249E-01 -.144E-01 -.272E+01   0.433E-02 0.250E-02 -.300E-01
   -.394E+01 -.227E+01 0.467E+02   0.361E+01 0.208E+01 -.472E+02   0.337E+00 0.195E+00 0.442E+00   0.615E-03 0.355E-03 0.196E-01
   -.394E+01 -.227E+01 0.467E+02   0.361E+01 0.208E+01 -.472E+02   0.337E+00 0.195E+00 0.442E+00   0.615E-03 0.355E-03 0.196E-01
   0.389E+01 0.225E+01 0.454E+02   -.358E+01 -.207E+01 -.462E+02   -.314E+00 -.181E+00 0.735E+00   -.237E-03 -.137E-03 0.209E-01
   0.389E+01 0.225E+01 0.454E+02   -.358E+01 -.207E+01 -.462E+02   -.314E+00 -.181E+00 0.735E+00   -.237E-03 -.137E-03 0.209E-01
   -.114E+00 -.659E-01 0.205E+04   0.935E-01 0.542E-01 -.205E+04   0.272E-01 0.157E-01 -.125E+01   -.400E-02 -.231E-02 -.529E-01
   -.114E+00 -.659E-01 0.205E+04   0.936E-01 0.539E-01 -.205E+04   0.272E-01 0.157E-01 -.125E+01   -.400E-02 -.231E-02 -.529E-01
   -.221E+00 -.128E+00 -.199E+04   0.195E+00 0.113E+00 0.199E+04   0.282E-01 0.163E-01 0.142E+01   -.411E-02 -.237E-02 0.778E-01
   -.221E+00 -.128E+00 -.199E+04   0.195E+00 0.113E+00 0.199E+04   0.282E-01 0.163E-01 0.142E+01   -.411E-02 -.237E-02 0.778E-01
   0.215E+00 0.124E+00 -.199E+04   -.178E+00 -.103E+00 0.199E+04   -.435E-01 -.251E-01 0.115E+01   0.376E-02 0.217E-02 0.774E-01
   0.215E+00 0.124E+00 -.199E+04   -.178E+00 -.102E+00 0.199E+04   -.435E-01 -.251E-01 0.115E+01   0.376E-02 0.217E-02 0.774E-01
 -----------------------------------------------------------------------------------------------
   -.202E-01 -.117E-01 0.224E+00   -.938E-14 -.588E-14 0.000E+00   0.197E-01 0.114E-01 -.459E+00   0.731E-03 0.422E-03 0.225E+00
 
 
 POSITION                                       TOTAL-FORCE (eV/Angst)
 -----------------------------------------------------------------------------------
      0.00035      0.00020     10.05988         0.002657      0.001534      0.000298
      4.34665      2.50954     10.05988         0.002657      0.001534      0.000298
      5.78754      3.34144     12.34970         0.007687      0.004438     -0.013615
      1.44124      0.83210     12.34970         0.007687      0.004438     -0.013615
      2.90430      3.34969     12.35423        -0.008293     -0.004788      0.001998
      4.35306      0.84035     12.35423        -0.008293     -0.004788      0.001998
      2.90000      0.00143      9.99555         0.002608      0.001506      0.001954
      1.45124      2.51076      9.99555         0.002608      0.001506      0.001954
      2.89521      1.67155     14.71495        -0.001966     -0.001135      0.014046
      7.24151      4.18089     14.71495        -0.001966     -0.001135      0.014046
      5.79532      1.67304     14.72063        -0.002694     -0.001555     -0.004680
      4.34656      4.18238     14.72063        -0.002694     -0.001555     -0.004680
 -----------------------------------------------------------------------------------
    total drift:                                0.000216      0.000083     -0.010268


--------------------------------------------------------------------------------------------------------



  FREE ENERGIE OF THE ION-ELECTRON SYSTEM (eV)
  ---------------------------------------------------
  free  energy   TOTEN  =       -41.68845401 eV

  energy  without entropy=      -41.67273839  energy(sigma->0) =      -41.68059620
 


--------------------------------------------------------------------------------------------------------


    POTLOK:  cpu time    0.0395: real time    0.0396


--------------------------------------------------------------------------------------------------------


 writing wavefunctions
     LOOP+:  cpu time   62.4630: real time   62.7428
    4ORBIT:  cpu time    0.0000: real time    0.0000

 total amount of memory used by VASP MPI-rank0   101509. kBytes
=======================================================================

   base      :      30000. kBytes
   nonl-proj :      29729. kBytes
   fftplans  :       3897. kBytes
   grid      :       6300. kBytes
   one-center:         31. kBytes
   wavefun   :      31552. kBytes
 
  
  
 General timing and accounting informations for this job:
 ========================================================
  
                  Total CPU time used (sec):       70.311
                            User time (sec):       66.256
                          System time (sec):        4.056
                         Elapsed time (sec):       70.717
  
                   Maximum memory used (kb):      158816.
                   Average memory used (kb):           0.
  
                          Minor page faults:        47272
                          Major page faults:            0
                 Voluntary context switches:         1269
