 vasp.5.4.4.18Apr17-6-g9f103f2a35 (build Aug 15 2018 17:53:46) complex          
  
 executed on        TETRALITH-B01 date 2020.10.23  14:25:27
 running on   32 total cores
 distrk:  each k-point on   32 cores,    1 groups
 distr:  one band on NCORES_PER_BAND=   8 cores,    4 groups


--------------------------------------------------------------------------------------------------------


 INCAR:
 POTCAR:    PAW_PBE Pd 04Jan2005                  
 POTCAR:    PAW_PBE O 08Apr2002                   
 POTCAR:    PAW_PBE Pd 04Jan2005                  
   VRHFIN =Pd : s1 d9                                                           
   LEXCH  = PE                                                                  
   EATOM  =   809.7530 eV,   59.5152 Ry                                         
                                                                                
   TITEL  = PAW_PBE Pd 04Jan2005                                                
   LULTRA =        F    use ultrasoft PP ?                                      
   IUNSCR =        1    unscreen: 0-lin 1-nonlin 2-no                           
   RPACOR =    2.000    partial core radius                                     
   POMASS =  106.420; ZVAL   =   10.000    mass and valenz                      
   RCORE  =    2.600    outmost cutoff radius                                   
   RWIGS  =    2.710; RWIGS  =    1.434    wigner-seitz radius (au A)           
   ENMAX  =  250.925; ENMIN  =  188.194 eV                                      
   ICORE  =        3    local potential                                         
   LCOR   =        T    correct aug charges                                     
   LPAW   =        T    paw PP                                                  
   EAUG   =  416.230                                                            
   DEXC   =    0.000                                                            
   RMAX   =    2.653    core radius for proj-oper                               
   RAUG   =    1.300    factor for augmentation sphere                          
   RDEP   =    2.734    radius for radial grids                                 
   RDEPT  =    2.103    core radius for aug-charge                              
                                                                                
   Atomic configuration                                                         
   12 entries                                                                   
     n  l   j            E        occ.                                          
     1  0  0.50    -24164.6631   2.0000                                         
     2  0  0.50     -3530.9218   2.0000                                         
     2  1  1.50     -3165.6822   6.0000                                         
     3  0  0.50      -639.4577   2.0000                                         
     3  1  1.50      -519.4532   6.0000                                         
     3  2  2.50      -328.9757  10.0000                                         
     4  0  0.50       -88.7014   2.0000                                         
     4  1  1.50       -54.4540   6.0000                                         
     4  2  2.50        -6.6878   9.0000                                         
     5  0  0.50        -4.3543   1.0000                                         
     5  1  0.50        -1.3606   0.0000                                         
     4  3  2.50        -1.3606   0.0000                                         
   Description                                                                  
     l       E           TYP  RCUT    TYP  RCUT                                 
     2     -6.6878251     23  2.400                                             
     2     -8.0484077     23  2.400                                             
     0     -4.3542939     23  2.400                                             
     0      4.3406793     23  2.400                                             
     1     -4.0817478     23  2.600                                             
     1     15.8380318     23  2.600                                             
     3     -4.0817478     23  2.400                                             
  local pseudopotential read in
  partial core-charges read in
  partial kinetic energy density read in
  atomic valenz-charges read in
  non local Contribution for L=           2  read in
    real space projection operators read in
  non local Contribution for L=           2  read in
    real space projection operators read in
  non local Contribution for L=           0  read in
    real space projection operators read in
  non local Contribution for L=           0  read in
    real space projection operators read in
  non local Contribution for L=           1  read in
    real space projection operators read in
  non local Contribution for L=           1  read in
    real space projection operators read in
    PAW grid and wavefunctions read in
 
   number of l-projection  operators is LMAX  =           6
   number of lm-projection operators is LMMAX =          18
 
 POTCAR:    PAW_PBE O 08Apr2002                   
   VRHFIN =O: s2p4                                                              
   LEXCH  = PE                                                                  
   EATOM  =   432.3788 eV,   31.7789 Ry                                         
                                                                                
   TITEL  = PAW_PBE O 08Apr2002                                                 
   LULTRA =        F    use ultrasoft PP ?                                      
   IUNSCR =        1    unscreen: 0-lin 1-nonlin 2-no                           
   RPACOR =    1.200    partial core radius                                     
   POMASS =   16.000; ZVAL   =    6.000    mass and valenz                      
   RCORE  =    1.520    outmost cutoff radius                                   
   RWIGS  =    1.550; RWIGS  =    0.820    wigner-seitz radius (au A)           
   ENMAX  =  400.000; ENMIN  =  300.000 eV                                      
   ICORE  =        2    local potential                                         
   LCOR   =        T    correct aug charges                                     
   LPAW   =        T    paw PP                                                  
   EAUG   =  605.392                                                            
   DEXC   =    0.000                                                            
   RMAX   =    1.553    core radius for proj-oper                               
   RAUG   =    1.300    factor for augmentation sphere                          
   RDEP   =    1.550    radius for radial grids                                 
   RDEPT  =    1.329    core radius for aug-charge                              
                                                                                
   Atomic configuration                                                         
    4 entries                                                                   
     n  l   j            E        occ.                                          
     1  0  0.50      -514.6923   2.0000                                         
     2  0  0.50       -23.9615   2.0000                                         
     2  1  0.50        -9.0305   4.0000                                         
     3  2  1.50        -9.5241   0.0000                                         
   Description                                                                  
     l       E           TYP  RCUT    TYP  RCUT                                 
     0    -23.9615318     23  1.200                                             
     0     -9.5240782     23  1.200                                             
     1     -9.0304911     23  1.520                                             
     1      8.1634956     23  1.520                                             
     2     -9.5240782      7  1.500                                             
  local pseudopotential read in
  partial core-charges read in
  partial kinetic energy density read in
  kinetic energy density of atom read in
  atomic valenz-charges read in
  non local Contribution for L=           0  read in
    real space projection operators read in
  non local Contribution for L=           0  read in
    real space projection operators read in
  non local Contribution for L=           1  read in
    real space projection operators read in
  non local Contribution for L=           1  read in
    real space projection operators read in
    PAW grid and wavefunctions read in
 
   number of l-projection  operators is LMAX  =           4
   number of lm-projection operators is LMMAX =           8
 

 ----------------------------------------------------------------------------- 
|                                                                             |
|  ADVICE TO THIS USER RUNNING 'VASP/VAMP'   (HEAR YOUR MASTER'S VOICE ...):  |
|                                                                             |
|      You enforced a specific xc-type in the INCAR file,                     |
|      a different type was found on the POTCAR file                          |
|          I HOPE YOU KNOW, WHAT YOU ARE  DOING                               |
|                                                                             |
 ----------------------------------------------------------------------------- 

  PAW_PBE Pd 04Jan2005                  :
 energy of atom  1       EATOM= -809.7530
 kinetic energy error for atom=    0.0051 (will be added to EATOM!!)
  PAW_PBE O 08Apr2002                   :
 energy of atom  2       EATOM= -432.3788
 kinetic energy error for atom=    0.0389 (will be added to EATOM!!)
 
 
 POSCAR: Pd  O                                   
  positions in cartesian coordinates
  No initial velocities read in
 exchange correlation table for  LEXCH =        9
   RHO(1)=    0.500       N(1)  =     2000
   RHO(2)=  100.500       N(2)  =     4000
 


--------------------------------------------------------------------------------------------------------


 ion  position               nearest neighbor table
   1  0.167  0.167  0.402-   2 2.81   3 2.81   4 2.81   4 2.81   3 2.81   2 2.81   6 2.82   5 2.82
                             8 2.82
   2  0.667  0.166  0.403-   6 2.80   5 2.80   4 2.80   3 2.81   1 2.81   1 2.81   3 2.82   4 2.82
                             7 2.89
   3  0.166  0.667  0.403-   6 2.80   8 2.80   4 2.80   2 2.81   1 2.81   1 2.81   2 2.82   4 2.82
                             7 2.89
   4  0.667  0.668  0.402-   8 2.80   5 2.80   2 2.80   3 2.80   1 2.81   1 2.81   3 2.82   2 2.82
                             7 2.90
   5  0.835  0.334  0.495-  12 2.79   2 2.80   4 2.80   6 2.80   8 2.81   7 2.81   1 2.82   7 2.82
                             8 2.82   6 2.82  11 2.87   9 2.88
   6  0.333  0.333  0.495-  12 2.79   2 2.80   3 2.80   8 2.80   5 2.80   7 2.82   1 2.82   7 2.82
                             5 2.82   8 2.82  11 2.88  10 2.88
   7  0.834  0.834  0.500-  10 2.75   9 2.75  11 2.75   5 2.81   6 2.82   8 2.82   8 2.82   6 2.82
                             5 2.82   3 2.89   2 2.89   4 2.90
   8  0.333  0.835  0.495-  12 2.79   3 2.80   4 2.80   6 2.80   5 2.81   7 2.82   7 2.82   1 2.82
                             5 2.82   6 2.82  10 2.87   9 2.88
   9  0.996  0.996  0.591-  13 2.01  11 2.74  10 2.74   7 2.75  12 2.81  12 2.82  10 2.88  11 2.88
                             8 2.88   5 2.88
  10  0.508  0.996  0.591-  13 2.01   9 2.74  11 2.75   7 2.75  12 2.81  12 2.81   8 2.87   6 2.88
                            11 2.88   9 2.88
  11  0.996  0.508  0.591-  13 2.01   9 2.74  10 2.75   7 2.75  12 2.81  12 2.81   5 2.87   6 2.88
                            10 2.88   9 2.88
  12  0.500  0.500  0.587-   6 2.79   5 2.79   8 2.79  10 2.81  11 2.81  11 2.81   9 2.81  10 2.81
                             9 2.82
  13  0.167  0.167  0.637-   9 2.01  10 2.01  11 2.01
 
  LATTYP: Found a hexagonal cell.
 ALAT       =     5.6251687946
 C/A-ratio  =     4.3719454448
  
  Lattice vectors:
  
 A1 = (   2.8125843973,  -4.8715390767,   0.0000000000)
 A2 = (  -5.6251687946,   0.0000000000,   0.0000000000)
 A3 = (   0.0000000000,   0.0000000000, -24.5929310880)


Analysis of symmetry for initial positions (statically):
=====================================================================
 Subroutine PRICEL returns:
 Original cell was already a primitive cell.
 

 Routine SETGRP: Setting up the symmetry group for a 
 hexagonal supercell.


 Subroutine GETGRP returns: Found  1 space group operations
 (whereof  1 operations were pure point group operations)
 out of a pool of 24 trial point group operations.


The static configuration has the point symmetry C_1 .


Analysis of symmetry for dynamics (positions and initial velocities):
=====================================================================
 Subroutine PRICEL returns:
 Original cell was already a primitive cell.
 

 Routine SETGRP: Setting up the symmetry group for a 
 hexagonal supercell.


 Subroutine GETGRP returns: Found  1 space group operations
 (whereof  1 operations were pure point group operations)
 out of a pool of 24 trial point group operations.


The dynamic configuration has the point symmetry C_1 .


 Subroutine INISYM returns: Found  1 space group operations
 (whereof  1 operations are pure point group operations),
 and found     1 'primitive' translations

 
 
 KPOINTS: KPOINTS created by Atomic Simulation Env

Automatic generation of k-mesh.
Space group operators:
 irot       det(A)        alpha          n_x          n_y          n_z        tau_x        tau_y        tau_z
    1     1.000000     0.000000     1.000000     0.000000     0.000000     0.000000     0.000000     0.000000
 
 Subroutine IBZKPT returns following result:
 ===========================================
 
 Found     96 irreducible k-points:
 
 Following reciprocal coordinates:
            Coordinates               Weight
  0.062500  0.062500  0.000000     16.000000
  0.000000  0.062500  0.000000     16.000000
 -0.062500  0.000000  0.000000     16.000000
  0.187500  0.062500  0.000000     16.000000
  0.125000  0.187500  0.000000     16.000000
 -0.062500  0.125000  0.000000     16.000000
  0.125000 -0.062500  0.000000     16.000000
 -0.062500 -0.187500  0.000000     16.000000
 -0.187500 -0.125000  0.000000     16.000000
  0.312500  0.062500  0.000000     16.000000
  0.250000  0.312500  0.000000     16.000000
 -0.062500  0.250000  0.000000     16.000000
  0.250000 -0.062500  0.000000     16.000000
 -0.062500 -0.312500  0.000000     16.000000
 -0.312500 -0.250000  0.000000     16.000000
  0.437500  0.062500  0.000000     16.000000
  0.375000  0.437500  0.000000     16.000000
 -0.062500  0.375000  0.000000     16.000000
  0.375000 -0.062500  0.000000     16.000000
 -0.062500 -0.437500  0.000000     16.000000
 -0.437500 -0.375000  0.000000     16.000000
 -0.437500  0.062500  0.000000     16.000000
  0.500000 -0.437500  0.000000     16.000000
 -0.062500  0.500000  0.000000     16.000000
  0.500000 -0.062500  0.000000     16.000000
 -0.062500  0.437500  0.000000     16.000000
  0.437500  0.500000  0.000000     16.000000
 -0.312500  0.062500  0.000000     16.000000
 -0.375000 -0.312500  0.000000     16.000000
 -0.062500 -0.375000  0.000000     16.000000
 -0.375000 -0.062500  0.000000     16.000000
 -0.062500  0.312500  0.000000     16.000000
  0.312500  0.375000  0.000000     16.000000
 -0.187500  0.062500  0.000000     16.000000
 -0.250000 -0.187500  0.000000     16.000000
 -0.062500 -0.250000  0.000000     16.000000
 -0.250000 -0.062500  0.000000     16.000000
 -0.062500  0.187500  0.000000     16.000000
  0.187500  0.250000  0.000000     16.000000
 -0.062500  0.062500  0.000000     16.000000
 -0.125000 -0.062500  0.000000     16.000000
 -0.062500 -0.125000  0.000000     16.000000
  0.187500  0.187500  0.000000     16.000000
  0.000000  0.187500  0.000000     16.000000
 -0.187500  0.000000  0.000000     16.000000
  0.312500  0.187500  0.000000     16.000000
  0.125000  0.312500  0.000000     16.000000
 -0.187500  0.125000  0.000000     16.000000
  0.125000 -0.187500  0.000000     16.000000
 -0.187500 -0.312500  0.000000     16.000000
 -0.312500 -0.125000  0.000000     16.000000
  0.437500  0.187500  0.000000     16.000000
  0.250000  0.437500  0.000000     16.000000
 -0.187500  0.250000  0.000000     16.000000
  0.250000 -0.187500  0.000000     16.000000
 -0.187500 -0.437500  0.000000     16.000000
 -0.437500 -0.250000  0.000000     16.000000
 -0.437500  0.187500  0.000000     16.000000
  0.375000 -0.437500  0.000000     16.000000
 -0.187500  0.375000  0.000000     16.000000
  0.375000 -0.187500  0.000000     16.000000
 -0.187500  0.437500  0.000000     16.000000
  0.437500 -0.375000  0.000000     16.000000
 -0.312500  0.187500  0.000000     16.000000
  0.500000 -0.312500  0.000000     16.000000
 -0.187500  0.500000  0.000000     16.000000
  0.500000 -0.187500  0.000000     16.000000
 -0.187500  0.312500  0.000000     16.000000
  0.312500  0.500000  0.000000     16.000000
 -0.187500  0.187500  0.000000     16.000000
 -0.375000 -0.187500  0.000000     16.000000
 -0.187500 -0.375000  0.000000     16.000000
  0.312500  0.312500  0.000000     16.000000
  0.000000  0.312500  0.000000     16.000000
 -0.312500  0.000000  0.000000     16.000000
  0.437500  0.312500  0.000000     16.000000
  0.125000  0.437500  0.000000     16.000000
 -0.312500  0.125000  0.000000     16.000000
  0.125000 -0.312500  0.000000     16.000000
 -0.312500 -0.437500  0.000000     16.000000
 -0.437500 -0.125000  0.000000     16.000000
 -0.437500  0.312500  0.000000     16.000000
  0.250000 -0.437500  0.000000     16.000000
 -0.312500  0.250000  0.000000     16.000000
  0.250000 -0.312500  0.000000     16.000000
 -0.312500  0.437500  0.000000     16.000000
  0.437500 -0.250000  0.000000     16.000000
 -0.312500  0.312500  0.000000     16.000000
  0.375000 -0.312500  0.000000     16.000000
 -0.312500  0.375000  0.000000     16.000000
  0.437500  0.437500  0.000000     16.000000
  0.000000  0.437500  0.000000     16.000000
 -0.437500  0.000000  0.000000     16.000000
 -0.437500  0.437500  0.000000     16.000000
  0.125000 -0.437500  0.000000     16.000000
 -0.437500  0.125000  0.000000     16.000000
 
 Following cartesian coordinates:
            Coordinates               Weight
  0.011111  0.006415  0.000000     16.000000
  0.000000  0.012830  0.000000     16.000000
 -0.011111  0.006415  0.000000     16.000000
  0.033332 -0.006415  0.000000     16.000000
  0.022222  0.025659  0.000000     16.000000
 -0.011111  0.032074  0.000000     16.000000
  0.022222 -0.025659  0.000000     16.000000
 -0.011111 -0.032074  0.000000     16.000000
 -0.033332 -0.006415  0.000000     16.000000
  0.055554 -0.019244  0.000000     16.000000
  0.044443  0.038489  0.000000     16.000000
 -0.011111  0.057733  0.000000     16.000000
  0.044443 -0.038489  0.000000     16.000000
 -0.011111 -0.057733  0.000000     16.000000
 -0.055554 -0.019244  0.000000     16.000000
  0.077775 -0.032074  0.000000     16.000000
  0.066665  0.051318  0.000000     16.000000
 -0.011111  0.083393  0.000000     16.000000
  0.066665 -0.051318  0.000000     16.000000
 -0.011111 -0.083393  0.000000     16.000000
 -0.077775 -0.032074  0.000000     16.000000
 -0.077775  0.057733  0.000000     16.000000
  0.088886 -0.141126  0.000000     16.000000
 -0.011111  0.109052  0.000000     16.000000
  0.088886 -0.064148  0.000000     16.000000
 -0.011111  0.096222  0.000000     16.000000
  0.077775  0.057733  0.000000     16.000000
 -0.055554  0.044904  0.000000     16.000000
 -0.066665 -0.025659  0.000000     16.000000
 -0.011111 -0.070563  0.000000     16.000000
 -0.066665  0.025659  0.000000     16.000000
 -0.011111  0.070563  0.000000     16.000000
  0.055554  0.044904  0.000000     16.000000
 -0.033332  0.032074  0.000000     16.000000
 -0.044443 -0.012830  0.000000     16.000000
 -0.011111 -0.044904  0.000000     16.000000
 -0.044443  0.012830  0.000000     16.000000
 -0.011111  0.044904  0.000000     16.000000
  0.033332  0.032074  0.000000     16.000000
 -0.011111  0.019244  0.000000     16.000000
 -0.022222  0.000000  0.000000     16.000000
 -0.011111 -0.019244  0.000000     16.000000
  0.033332  0.019244  0.000000     16.000000
  0.000000  0.038489  0.000000     16.000000
 -0.033332  0.019244  0.000000     16.000000
  0.055554  0.006415  0.000000     16.000000
  0.022222  0.051318  0.000000     16.000000
 -0.033332  0.044904  0.000000     16.000000
  0.022222 -0.051318  0.000000     16.000000
 -0.033332 -0.044904  0.000000     16.000000
 -0.055554  0.006415  0.000000     16.000000
  0.077775 -0.006415  0.000000     16.000000
  0.044443  0.064148  0.000000     16.000000
 -0.033332  0.070563  0.000000     16.000000
  0.044443 -0.064148  0.000000     16.000000
 -0.033332 -0.070563  0.000000     16.000000
 -0.077775 -0.006415  0.000000     16.000000
 -0.077775  0.083393  0.000000     16.000000
  0.066665 -0.128296  0.000000     16.000000
 -0.033332  0.096222  0.000000     16.000000
  0.066665 -0.076978  0.000000     16.000000
 -0.033332  0.109052  0.000000     16.000000
  0.077775 -0.121881  0.000000     16.000000
 -0.055554  0.070563  0.000000     16.000000
  0.088886 -0.115467  0.000000     16.000000
 -0.033332  0.121881  0.000000     16.000000
  0.088886 -0.089807  0.000000     16.000000
 -0.033332  0.083393  0.000000     16.000000
  0.055554  0.070563  0.000000     16.000000
 -0.033332  0.057733  0.000000     16.000000
 -0.066665  0.000000  0.000000     16.000000
 -0.033332 -0.057733  0.000000     16.000000
  0.055554  0.032074  0.000000     16.000000
  0.000000  0.064148  0.000000     16.000000
 -0.055554  0.032074  0.000000     16.000000
  0.077775  0.019244  0.000000     16.000000
  0.022222  0.076978  0.000000     16.000000
 -0.055554  0.057733  0.000000     16.000000
  0.022222 -0.076978  0.000000     16.000000
 -0.055554 -0.057733  0.000000     16.000000
 -0.077775  0.019244  0.000000     16.000000
 -0.077775  0.109052  0.000000     16.000000
  0.044443 -0.115467  0.000000     16.000000
 -0.055554  0.083393  0.000000     16.000000
  0.044443 -0.089807  0.000000     16.000000
 -0.055554  0.121881  0.000000     16.000000
  0.077775 -0.096222  0.000000     16.000000
 -0.055554  0.096222  0.000000     16.000000
  0.066665 -0.102637  0.000000     16.000000
 -0.055554  0.109052  0.000000     16.000000
  0.077775  0.044904  0.000000     16.000000
  0.000000  0.089807  0.000000     16.000000
 -0.077775  0.044904  0.000000     16.000000
 -0.077775  0.134711  0.000000     16.000000
  0.022222 -0.102637  0.000000     16.000000
 -0.077775  0.070563  0.000000     16.000000
 


--------------------------------------------------------------------------------------------------------




 Dimension of arrays:
   k-points           NKPTS =     96   k-points in BZ     NKDIM =     96   number of bands    NBANDS=     76
   number of dos      NEDOS =    301   number of ions     NIONS =     13
   non local maximal  LDIM  =      6   non local SUM 2l+1 LMDIM =     18
   total plane-waves  NPLWV = 288000
   max r-space proj   IRMAX =      1   max aug-charges    IRDMAX=  20927
   dimension x,y,z NGX =    40 NGY =   40 NGZ =  180
   dimension x,y,z NGXF=    80 NGYF=   80 NGZF=  360
   support grid    NGXF=    80 NGYF=   80 NGZF=  360
   ions per type =              12   1
   NGX,Y,Z   is equivalent  to a cutoff of  11.82, 11.82, 12.17 a.u.
   NGXF,Y,Z  is equivalent  to a cutoff of  23.64, 23.64, 24.34 a.u.

 SYSTEM =  out                                     
 POSCAR =  Pd  O                                   

 Startparameter for this run:
   NWRITE =      2    write-flag & timer
   PREC   = accura    normal or accurate (medium, high low for compatibility)
   ISTART =      1    job   : 0-new  1-cont  2-samecut
   ICHARG =      0    charge: 1-file 2-atom 10-const
   ISPIN  =      1    spin polarized calculation?
   LNONCOLLINEAR =      F non collinear calculations
   LSORBIT =      F    spin-orbit coupling
   INIWAV =      1    electr: 0-lowe 1-rand  2-diag
   LASPH  =      F    aspherical Exc in radial PAW
   METAGGA=      F    non-selfconsistent MetaGGA calc.

 Electronic Relaxation 1
   ENCUT  =  450.0 eV  33.07 Ry    5.75 a.u.   9.73  9.73 42.54*2*pi/ulx,y,z
   ENINI  =  450.0     initial cutoff
   ENAUG  =  605.4 eV  augmentation charge cutoff
   NELM   =     60;   NELMIN=  2; NELMDL=  0     # of ELM steps 
   EDIFF  = 0.1E-03   stopping-criterion for ELM
   LREAL  =      F    real-space projection
   NLSPLINE    = F    spline interpolate recip. space projectors
   LCOMPAT=      F    compatible to vasp.4.4
   GGA_COMPAT  = T    GGA compatible to vasp.4.4-vasp.4.6
   LMAXPAW     = -100 max onsite density
   LMAXMIX     =    2 max onsite mixed and CHGCAR
   VOSKOWN=      0    Vosko Wilk Nusair interpolation
   ROPT   =    0.00000   0.00000
 Ionic relaxation
   EDIFFG = 0.1E-02   stopping-criterion for IOM
   NSW    =      0    number of steps for IOM
   NBLOCK =      1;   KBLOCK =      1    inner block; outer block 
   IBRION =     -1    ionic relax: 0-MD 1-quasi-New 2-CG
   NFREE  =      0    steps in history (QN), initial steepest desc. (CG)
   ISIF   =      2    stress and relaxation
   IWAVPR =     10    prediction:  0-non 1-charg 2-wave 3-comb
   ISYM   =      2    0-nonsym 1-usesym 2-fastsym
   LCORR  =      T    Harris-Foulkes like correction to forces

   POTIM  = 0.5000    time-step for ionic-motion
   TEIN   =    0.0    initial temperature
   TEBEG  =    0.0;   TEEND  =   0.0 temperature during run
   SMASS  =  -3.00    Nose mass-parameter (am)
   estimated Nose-frequenzy (Omega)   =  0.10E-29 period in steps =****** mass=  -0.723E-27a.u.
   SCALEE = 1.0000    scale energy and forces
   NPACO  =    256;   APACO  = 16.0  distance and # of slots for P.C.
   PSTRESS=    0.0 pullay stress

  Mass of Ions in am
   POMASS = 106.42 16.00
  Ionic Valenz
   ZVAL   =  10.00  6.00
  Atomic Wigner-Seitz radii
   RWIGS  =  -1.00 -1.00
  virtual crystal weights 
   VCA    =   1.00  1.00
   NELECT =     126.0000    total number of electrons
   NUPDOWN=      -1.0000    fix difference up-down

 DOS related values:
   EMIN   =  10.00;   EMAX   =-10.00  energy-range for DOS
   EFERMI =   0.00
   ISMEAR =     0;   SIGMA  =   0.05  broadening in eV -4-tet -1-fermi 0-gaus

 Electronic relaxation 2 (details)
   IALGO  =     68    algorithm
   LDIAG  =      T    sub-space diagonalisation (order eigenvalues)
   LSUBROT=      F    optimize rotation matrix (better conditioning)
   TURBO    =      0    0=normal 1=particle mesh
   IRESTART =      0    0=no restart 2=restart with 2 vectors
   NREBOOT  =      0    no. of reboots
   NMIN     =      0    reboot dimension
   EREF     =   0.00    reference energy to select bands
   IMIX   =      4    mixing-type and parameters
     AMIX     =   0.40;   BMIX     =  1.00
     AMIX_MAG =   1.60;   BMIX_MAG =  1.00
     AMIN     =   0.10
     WC   =   100.;   INIMIX=   1;  MIXPRE=   1;  MAXMIX= -45

 Intra band minimization:
   WEIMIN = 0.0000     energy-eigenvalue tresh-hold
   EBREAK =  0.33E-06  absolut break condition
   DEPER  =   0.30     relativ break condition  

   TIME   =   0.40     timestep for ELM

  volume/ion in A,a.u.               =      51.84       349.84
  Fermi-wavevector in a.u.,A,eV,Ry     =   0.936112  1.768995 11.922854  0.876305
  Thomas-Fermi vector in A             =   2.063088
 
 Write flags
   LWAVE        =      T    write WAVECAR
   LDOWNSAMPLE  =      F    k-point downsampling of WAVECAR
   LCHARG       =      T    write CHGCAR
   LVTOT        =      F    write LOCPOT, total local potential
   LVHAR        =      F    write LOCPOT, Hartree potential only
   LELF         =      F    write electronic localiz. function (ELF)
   LORBIT       =      0    0 simple, 1 ext, 2 COOP (PROOUT), +10 PAW based schemes


 Dipole corrections
   LMONO  =      F    monopole corrections only (constant potential shift)
   LDIPOL =      F    correct potential (dipole corrections)
   IDIPOL =      0    1-x, 2-y, 3-z, 4-all directions 
   EPSILON=  1.0000000 bulk dielectric constant

 Exchange correlation treatment:
   GGA     =    RP    GGA type
   LEXCH   =     9    internal setting for exchange type
   VOSKOWN=      0    Vosko Wilk Nusair interpolation
   LHFCALC =     F    Hartree Fock is set to
   LHFONE  =     F    Hartree Fock one center treatment
   AEXX    =    0.0000 exact exchange contribution

 Linear response parameters
   LEPSILON=     F    determine dielectric tensor
   LRPA    =     F    only Hartree local field effects (RPA)
   LNABLA  =     F    use nabla operator in PAW spheres
   LVEL    =     F    velocity operator in full k-point grid
   LINTERFAST=   F  fast interpolation
   KINTER  =     0    interpolate to denser k-point grid
   CSHIFT  =0.1000    complex shift for real part using Kramers Kronig
   OMEGAMAX=  -1.0    maximum frequency
   DEG_THRESHOLD= 0.2000000E-02 threshold for treating states as degnerate
   RTIME   =   -0.100 relaxation time in fs
  (WPLASMAI=    0.000 imaginary part of plasma frequency in eV, 0.658/RTIME)
   DFIELD  = 0.0000000 0.0000000 0.0000000 field for delta impulse in time
 
 Orbital magnetization related:
   ORBITALMAG=     F  switch on orbital magnetization
   LCHIMAG   =     F  perturbation theory with respect to B field
   DQ        =  0.001000  dq finite difference perturbation B field
   LLRAUG    =     F  two centre corrections for induced B field



--------------------------------------------------------------------------------------------------------


 Static calculation
 charge density and potential will be updated during run
 non-spin polarized calculation
 RMM-DIIS sequential band-by-band and
  variant of blocked Davidson during initial phase
 perform sub-space diagonalisation
    before iterative eigenvector-optimisation
 modified Broyden-mixing scheme, WC =      100.0
 initial mixing is a Kerker type mixing with AMIX =  0.4000 and BMIX =      1.0000
 Hartree-type preconditioning will be used
 using additional bands           13
 reciprocal scheme for non local part
 use partial core corrections
 calculate Harris-corrections to forces 
   (improved forces if not selfconsistent)
 use gradient corrections 
 use of overlap-Matrix (Vanderbilt PP)
 Gauss-broadening in eV      SIGMA  =   0.05


--------------------------------------------------------------------------------------------------------


  energy-cutoff  :      450.00
  volume of cell :      673.93
      direct lattice vectors                 reciprocal lattice vectors
     5.625168795  0.000000000  0.000000000     0.177772443 -0.102636968  0.000000000
     2.812584397  4.871539077  0.000000000     0.000000000  0.205273936  0.000000000
     0.000000000  0.000000000 24.592931088     0.000000000  0.000000000  0.040662091

  length of vectors
     5.625168795  5.625168795 24.592931088     0.205273936  0.205273936  0.040662091


 
 old parameters found on file WAVECAR:
  energy-cutoff  :      450.00
  volume of cell :      673.93
      direct lattice vectors                 reciprocal lattice vectors
     5.625168795  0.000000000  0.000000000     0.177772443 -0.102636968  0.000000000
     2.812584397  4.871539077  0.000000000     0.000000000  0.205273936  0.000000000
     0.000000000  0.000000000 24.592931088     0.000000000  0.000000000  0.040662091

  length of vectors

 
 k-points in units of 2pi/SCALE and weight: KPOINTS created by Atomic Simulation Env
   0.01111078  0.00641481  0.00000000       0.010
   0.00000000  0.01282962  0.00000000       0.010
  -0.01111078  0.00641481  0.00000000       0.010
   0.03333233 -0.00641481  0.00000000       0.010
   0.02222156  0.02565924  0.00000000       0.010
  -0.01111078  0.03207405  0.00000000       0.010
   0.02222156 -0.02565924  0.00000000       0.010
  -0.01111078 -0.03207405  0.00000000       0.010
  -0.03333233 -0.00641481  0.00000000       0.010
   0.05555389 -0.01924443  0.00000000       0.010
   0.04444311  0.03848886  0.00000000       0.010
  -0.01111078  0.05773329  0.00000000       0.010
   0.04444311 -0.03848886  0.00000000       0.010
  -0.01111078 -0.05773329  0.00000000       0.010
  -0.05555389 -0.01924443  0.00000000       0.010
   0.07777544 -0.03207405  0.00000000       0.010
   0.06666467  0.05131848  0.00000000       0.010
  -0.01111078  0.08339254  0.00000000       0.010
   0.06666467 -0.05131848  0.00000000       0.010
  -0.01111078 -0.08339254  0.00000000       0.010
  -0.07777544 -0.03207405  0.00000000       0.010
  -0.07777544  0.05773329  0.00000000       0.010
   0.08888622 -0.14112583  0.00000000       0.010
  -0.01111078  0.10905178  0.00000000       0.010
   0.08888622 -0.06414810  0.00000000       0.010
  -0.01111078  0.09622216  0.00000000       0.010
   0.07777544  0.05773329  0.00000000       0.010
  -0.05555389  0.04490367  0.00000000       0.010
  -0.06666467 -0.02565924  0.00000000       0.010
  -0.01111078 -0.07056292  0.00000000       0.010
  -0.06666467  0.02565924  0.00000000       0.010
  -0.01111078  0.07056292  0.00000000       0.010
   0.05555389  0.04490367  0.00000000       0.010
  -0.03333233  0.03207405  0.00000000       0.010
  -0.04444311 -0.01282962  0.00000000       0.010
  -0.01111078 -0.04490367  0.00000000       0.010
  -0.04444311  0.01282962  0.00000000       0.010
  -0.01111078  0.04490367  0.00000000       0.010
   0.03333233  0.03207405  0.00000000       0.010
  -0.01111078  0.01924443  0.00000000       0.010
  -0.02222156  0.00000000  0.00000000       0.010
  -0.01111078 -0.01924443  0.00000000       0.010
   0.03333233  0.01924443  0.00000000       0.010
   0.00000000  0.03848886  0.00000000       0.010
  -0.03333233  0.01924443  0.00000000       0.010
   0.05555389  0.00641481  0.00000000       0.010
   0.02222156  0.05131848  0.00000000       0.010
  -0.03333233  0.04490367  0.00000000       0.010
   0.02222156 -0.05131848  0.00000000       0.010
  -0.03333233 -0.04490367  0.00000000       0.010
  -0.05555389  0.00641481  0.00000000       0.010
   0.07777544 -0.00641481  0.00000000       0.010
   0.04444311  0.06414810  0.00000000       0.010
  -0.03333233  0.07056292  0.00000000       0.010
   0.04444311 -0.06414810  0.00000000       0.010
  -0.03333233 -0.07056292  0.00000000       0.010
  -0.07777544 -0.00641481  0.00000000       0.010
  -0.07777544  0.08339254  0.00000000       0.010
   0.06666467 -0.12829621  0.00000000       0.010
  -0.03333233  0.09622216  0.00000000       0.010
   0.06666467 -0.07697773  0.00000000       0.010
  -0.03333233  0.10905178  0.00000000       0.010
   0.07777544 -0.12188140  0.00000000       0.010
  -0.05555389  0.07056292  0.00000000       0.010
   0.08888622 -0.11546659  0.00000000       0.010
  -0.03333233  0.12188140  0.00000000       0.010
   0.08888622 -0.08980735  0.00000000       0.010
  -0.03333233  0.08339254  0.00000000       0.010
   0.05555389  0.07056292  0.00000000       0.010
  -0.03333233  0.05773329  0.00000000       0.010
  -0.06666467  0.00000000  0.00000000       0.010
  -0.03333233 -0.05773329  0.00000000       0.010
   0.05555389  0.03207405  0.00000000       0.010
   0.00000000  0.06414810  0.00000000       0.010
  -0.05555389  0.03207405  0.00000000       0.010
   0.07777544  0.01924443  0.00000000       0.010
   0.02222156  0.07697773  0.00000000       0.010
  -0.05555389  0.05773329  0.00000000       0.010
   0.02222156 -0.07697773  0.00000000       0.010
  -0.05555389 -0.05773329  0.00000000       0.010
  -0.07777544  0.01924443  0.00000000       0.010
  -0.07777544  0.10905178  0.00000000       0.010
   0.04444311 -0.11546659  0.00000000       0.010
  -0.05555389  0.08339254  0.00000000       0.010
   0.04444311 -0.08980735  0.00000000       0.010
  -0.05555389  0.12188140  0.00000000       0.010
   0.07777544 -0.09622216  0.00000000       0.010
  -0.05555389  0.09622216  0.00000000       0.010
   0.06666467 -0.10263697  0.00000000       0.010
  -0.05555389  0.10905178  0.00000000       0.010
   0.07777544  0.04490367  0.00000000       0.010
   0.00000000  0.08980735  0.00000000       0.010
  -0.07777544  0.04490367  0.00000000       0.010
  -0.07777544  0.13471102  0.00000000       0.010
   0.02222156 -0.10263697  0.00000000       0.010
  -0.07777544  0.07056292  0.00000000       0.010
 
 k-points in reciprocal lattice and weights: KPOINTS created by Atomic Simulation Env
   0.06250000  0.06250000  0.00000000       0.010
   0.00000000  0.06250000  0.00000000       0.010
  -0.06250000  0.00000000  0.00000000       0.010
   0.18750000  0.06250000  0.00000000       0.010
   0.12500000  0.18750000  0.00000000       0.010
  -0.06250000  0.12500000  0.00000000       0.010
   0.12500000 -0.06250000  0.00000000       0.010
  -0.06250000 -0.18750000  0.00000000       0.010
  -0.18750000 -0.12500000  0.00000000       0.010
   0.31250000  0.06250000  0.00000000       0.010
   0.25000000  0.31250000  0.00000000       0.010
  -0.06250000  0.25000000  0.00000000       0.010
   0.25000000 -0.06250000  0.00000000       0.010
  -0.06250000 -0.31250000  0.00000000       0.010
  -0.31250000 -0.25000000  0.00000000       0.010
   0.43750000  0.06250000  0.00000000       0.010
   0.37500000  0.43750000  0.00000000       0.010
  -0.06250000  0.37500000  0.00000000       0.010
   0.37500000 -0.06250000  0.00000000       0.010
  -0.06250000 -0.43750000  0.00000000       0.010
  -0.43750000 -0.37500000  0.00000000       0.010
  -0.43750000  0.06250000  0.00000000       0.010
   0.50000000 -0.43750000  0.00000000       0.010
  -0.06250000  0.50000000  0.00000000       0.010
   0.50000000 -0.06250000  0.00000000       0.010
  -0.06250000  0.43750000  0.00000000       0.010
   0.43750000  0.50000000  0.00000000       0.010
  -0.31250000  0.06250000  0.00000000       0.010
  -0.37500000 -0.31250000  0.00000000       0.010
  -0.06250000 -0.37500000  0.00000000       0.010
  -0.37500000 -0.06250000  0.00000000       0.010
  -0.06250000  0.31250000  0.00000000       0.010
   0.31250000  0.37500000  0.00000000       0.010
  -0.18750000  0.06250000  0.00000000       0.010
  -0.25000000 -0.18750000  0.00000000       0.010
  -0.06250000 -0.25000000  0.00000000       0.010
  -0.25000000 -0.06250000  0.00000000       0.010
  -0.06250000  0.18750000  0.00000000       0.010
   0.18750000  0.25000000  0.00000000       0.010
  -0.06250000  0.06250000  0.00000000       0.010
  -0.12500000 -0.06250000  0.00000000       0.010
  -0.06250000 -0.12500000  0.00000000       0.010
   0.18750000  0.18750000  0.00000000       0.010
   0.00000000  0.18750000  0.00000000       0.010
  -0.18750000  0.00000000  0.00000000       0.010
   0.31250000  0.18750000  0.00000000       0.010
   0.12500000  0.31250000  0.00000000       0.010
  -0.18750000  0.12500000  0.00000000       0.010
   0.12500000 -0.18750000  0.00000000       0.010
  -0.18750000 -0.31250000  0.00000000       0.010
  -0.31250000 -0.12500000  0.00000000       0.010
   0.43750000  0.18750000  0.00000000       0.010
   0.25000000  0.43750000  0.00000000       0.010
  -0.18750000  0.25000000  0.00000000       0.010
   0.25000000 -0.18750000  0.00000000       0.010
  -0.18750000 -0.43750000  0.00000000       0.010
  -0.43750000 -0.25000000  0.00000000       0.010
  -0.43750000  0.18750000  0.00000000       0.010
   0.37500000 -0.43750000  0.00000000       0.010
  -0.18750000  0.37500000  0.00000000       0.010
   0.37500000 -0.18750000  0.00000000       0.010
  -0.18750000  0.43750000  0.00000000       0.010
   0.43750000 -0.37500000  0.00000000       0.010
  -0.31250000  0.18750000  0.00000000       0.010
   0.50000000 -0.31250000  0.00000000       0.010
  -0.18750000  0.50000000  0.00000000       0.010
   0.50000000 -0.18750000  0.00000000       0.010
  -0.18750000  0.31250000  0.00000000       0.010
   0.31250000  0.50000000  0.00000000       0.010
  -0.18750000  0.18750000  0.00000000       0.010
  -0.37500000 -0.18750000  0.00000000       0.010
  -0.18750000 -0.37500000  0.00000000       0.010
   0.31250000  0.31250000  0.00000000       0.010
   0.00000000  0.31250000  0.00000000       0.010
  -0.31250000  0.00000000  0.00000000       0.010
   0.43750000  0.31250000  0.00000000       0.010
   0.12500000  0.43750000  0.00000000       0.010
  -0.31250000  0.12500000  0.00000000       0.010
   0.12500000 -0.31250000  0.00000000       0.010
  -0.31250000 -0.43750000  0.00000000       0.010
  -0.43750000 -0.12500000  0.00000000       0.010
  -0.43750000  0.31250000  0.00000000       0.010
   0.25000000 -0.43750000  0.00000000       0.010
  -0.31250000  0.25000000  0.00000000       0.010
   0.25000000 -0.31250000  0.00000000       0.010
  -0.31250000  0.43750000  0.00000000       0.010
   0.43750000 -0.25000000  0.00000000       0.010
  -0.31250000  0.31250000  0.00000000       0.010
   0.37500000 -0.31250000  0.00000000       0.010
  -0.31250000  0.37500000  0.00000000       0.010
   0.43750000  0.43750000  0.00000000       0.010
   0.00000000  0.43750000  0.00000000       0.010
  -0.43750000  0.00000000  0.00000000       0.010
  -0.43750000  0.43750000  0.00000000       0.010
   0.12500000 -0.43750000  0.00000000       0.010
  -0.43750000  0.12500000  0.00000000       0.010
 
 position of ions in fractional coordinates (direct lattice) 
   0.16668407  0.16718848  0.40156944
   0.66687700  0.16643803  0.40260972
   0.16593005  0.66739440  0.40262273
   0.66723885  0.66774538  0.40248884
   0.83453503  0.33350159  0.49524639
   0.33296807  0.33318348  0.49521795
   0.83369991  0.83386665  0.50009416
   0.33325636  0.83476591  0.49524960
   0.99598205  0.99589834  0.59148840
   0.50802751  0.99601186  0.59126761
   0.99606323  0.50800573  0.59127861
   0.50005703  0.50003142  0.58718252
   0.16685027  0.16674071  0.63735056
 
 position of ions in cartesian coordinates  (Angst):
   1.40785771  0.81446520  9.87576947
   4.21941668  0.81080934  9.90135310
   2.81048764  3.25123791  9.90167311
   5.63142143  3.25294773  9.89838029
   5.63240181  1.62466605 12.17956026
   2.81010823  1.62311634 12.17886085
   7.03502304  4.06221398 12.29878130
   4.22247286  4.06659476 12.17963924
   8.40361528  4.85155770 14.54643356
   5.65910790  4.85211070 14.54100356
   7.03183277  2.47476977 14.54127417
   4.21928578  2.43592258 14.44053933
   1.40753323  0.81228389 15.67431841
 


--------------------------------------------------------------------------------------------------------


 k-point  1 :   0.0625 0.0625 0.0000  plane waves:   14629
 k-point  2 :   0.0000 0.0625 0.0000  plane waves:   14629
 k-point  3 :  -0.0625 0.0000 0.0000  plane waves:   14629
 k-point  4 :   0.1875 0.0625 0.0000  plane waves:   14620
 k-point  5 :   0.1250 0.1875 0.0000  plane waves:   14620
 k-point  6 :  -0.0625 0.1250 0.0000  plane waves:   14620
 k-point  7 :   0.1250-0.0625 0.0000  plane waves:   14620
 k-point  8 :  -0.0625-0.1875 0.0000  plane waves:   14620
 k-point  9 :  -0.1875-0.1250 0.0000  plane waves:   14620
 k-point 10 :   0.3125 0.0625 0.0000  plane waves:   14606
 k-point 11 :   0.2500 0.3125 0.0000  plane waves:   14606
 k-point 12 :  -0.0625 0.2500 0.0000  plane waves:   14606
 k-point 13 :   0.2500-0.0625 0.0000  plane waves:   14606
 k-point 14 :  -0.0625-0.3125 0.0000  plane waves:   14606
 k-point 15 :  -0.3125-0.2500 0.0000  plane waves:   14606
 k-point 16 :   0.4375 0.0625 0.0000  plane waves:   14612
 k-point 17 :   0.3750 0.4375 0.0000  plane waves:   14612
 k-point 18 :  -0.0625 0.3750 0.0000  plane waves:   14612
 k-point 19 :   0.3750-0.0625 0.0000  plane waves:   14612
 k-point 20 :  -0.0625-0.4375 0.0000  plane waves:   14612
 k-point 21 :  -0.4375-0.3750 0.0000  plane waves:   14612
 k-point 22 :  -0.4375 0.0625 0.0000  plane waves:   14631
 k-point 23 :   0.5000-0.4375 0.0000  plane waves:   14631
 k-point 24 :  -0.0625 0.5000 0.0000  plane waves:   14631
 k-point 25 :   0.5000-0.0625 0.0000  plane waves:   14631
 k-point 26 :  -0.0625 0.4375 0.0000  plane waves:   14631
 k-point 27 :   0.4375 0.5000 0.0000  plane waves:   14631
 k-point 28 :  -0.3125 0.0625 0.0000  plane waves:   14620
 k-point 29 :  -0.3750-0.3125 0.0000  plane waves:   14620
 k-point 30 :  -0.0625-0.3750 0.0000  plane waves:   14620
 k-point 31 :  -0.3750-0.0625 0.0000  plane waves:   14620
 k-point 32 :  -0.0625 0.3125 0.0000  plane waves:   14620
 k-point 33 :   0.3125 0.3750 0.0000  plane waves:   14620
 k-point 34 :  -0.1875 0.0625 0.0000  plane waves:   14619
 k-point 35 :  -0.2500-0.1875 0.0000  plane waves:   14619
 k-point 36 :  -0.0625-0.2500 0.0000  plane waves:   14619
 k-point 37 :  -0.2500-0.0625 0.0000  plane waves:   14619
 k-point 38 :  -0.0625 0.1875 0.0000  plane waves:   14619
 k-point 39 :   0.1875 0.2500 0.0000  plane waves:   14619
 k-point 40 :  -0.0625 0.0625 0.0000  plane waves:   14601
 k-point 41 :  -0.1250-0.0625 0.0000  plane waves:   14601
 k-point 42 :  -0.0625-0.1250 0.0000  plane waves:   14601
 k-point 43 :   0.1875 0.1875 0.0000  plane waves:   14597
 k-point 44 :   0.0000 0.1875 0.0000  plane waves:   14597
 k-point 45 :  -0.1875 0.0000 0.0000  plane waves:   14597
 k-point 46 :   0.3125 0.1875 0.0000  plane waves:   14598
 k-point 47 :   0.1250 0.3125 0.0000  plane waves:   14598
 k-point 48 :  -0.1875 0.1250 0.0000  plane waves:   14598
 k-point 49 :   0.1250-0.1875 0.0000  plane waves:   14598
 k-point 50 :  -0.1875-0.3125 0.0000  plane waves:   14598
 k-point 51 :  -0.3125-0.1250 0.0000  plane waves:   14598
 k-point 52 :   0.4375 0.1875 0.0000  plane waves:   14596
 k-point 53 :   0.2500 0.4375 0.0000  plane waves:   14596
 k-point 54 :  -0.1875 0.2500 0.0000  plane waves:   14596
 k-point 55 :   0.2500-0.1875 0.0000  plane waves:   14596
 k-point 56 :  -0.1875-0.4375 0.0000  plane waves:   14596
 k-point 57 :  -0.4375-0.2500 0.0000  plane waves:   14596
 k-point 58 :  -0.4375 0.1875 0.0000  plane waves:   14592
 k-point 59 :   0.3750-0.4375 0.0000  plane waves:   14592
 k-point 60 :  -0.1875 0.3750 0.0000  plane waves:   14592
 k-point 61 :   0.3750-0.1875 0.0000  plane waves:   14592
 k-point 62 :  -0.1875 0.4375 0.0000  plane waves:   14592
 k-point 63 :   0.4375-0.3750 0.0000  plane waves:   14592
 k-point 64 :  -0.3125 0.1875 0.0000  plane waves:   14610
 k-point 65 :   0.5000-0.3125 0.0000  plane waves:   14610
 k-point 66 :  -0.1875 0.5000 0.0000  plane waves:   14610
 k-point 67 :   0.5000-0.1875 0.0000  plane waves:   14610
 k-point 68 :  -0.1875 0.3125 0.0000  plane waves:   14610
 k-point 69 :   0.3125 0.5000 0.0000  plane waves:   14610
 k-point 70 :  -0.1875 0.1875 0.0000  plane waves:   14602
 k-point 71 :  -0.3750-0.1875 0.0000  plane waves:   14602
 k-point 72 :  -0.1875-0.3750 0.0000  plane waves:   14602
 k-point 73 :   0.3125 0.3125 0.0000  plane waves:   14619
 k-point 74 :   0.0000 0.3125 0.0000  plane waves:   14619
 k-point 75 :  -0.3125 0.0000 0.0000  plane waves:   14619
 k-point 76 :   0.4375 0.3125 0.0000  plane waves:   14614
 k-point 77 :   0.1250 0.4375 0.0000  plane waves:   14614
 k-point 78 :  -0.3125 0.1250 0.0000  plane waves:   14614
 k-point 79 :   0.1250-0.3125 0.0000  plane waves:   14614
 k-point 80 :  -0.3125-0.4375 0.0000  plane waves:   14614
 k-point 81 :  -0.4375-0.1250 0.0000  plane waves:   14614
 k-point 82 :  -0.4375 0.3125 0.0000  plane waves:   14585
 k-point 83 :   0.2500-0.4375 0.0000  plane waves:   14585
 k-point 84 :  -0.3125 0.2500 0.0000  plane waves:   14585
 k-point 85 :   0.2500-0.3125 0.0000  plane waves:   14585
 k-point 86 :  -0.3125 0.4375 0.0000  plane waves:   14585
 k-point 87 :   0.4375-0.2500 0.0000  plane waves:   14585
 k-point 88 :  -0.3125 0.3125 0.0000  plane waves:   14600
 k-point 89 :   0.3750-0.3125 0.0000  plane waves:   14600
 k-point 90 :  -0.3125 0.3750 0.0000  plane waves:   14600
 k-point 91 :   0.4375 0.4375 0.0000  plane waves:   14636
 k-point 92 :   0.0000 0.4375 0.0000  plane waves:   14636
 k-point 93 :  -0.4375 0.0000 0.0000  plane waves:   14636
 k-point 94 :  -0.4375 0.4375 0.0000  plane waves:   14596
 k-point 95 :   0.1250-0.4375 0.0000  plane waves:   14596
 k-point 96 :  -0.4375 0.1250 0.0000  plane waves:   14596

 maximum and minimum number of plane-waves per node :      1865     1794

 maximum number of plane-waves:     14636
 maximum index in each direction: 
   IXMAX=   10   IYMAX=   10   IZMAX=   42
   IXMIN=  -10   IYMIN=  -10   IZMIN=  -42


 parallel 3D FFT for wavefunctions:
    minimum data exchange during FFTs selected (reduces bandwidth)
 parallel 3D FFT for charge:
    minimum data exchange during FFTs selected (reduces bandwidth)


 total amount of memory used by VASP MPI-rank0   147598. kBytes
=======================================================================

   base      :      30000. kBytes
   nonl-proj :      51923. kBytes
   fftplans  :       3895. kBytes
   grid      :       6300. kBytes
   one-center:         31. kBytes
   wavefun   :      55449. kBytes
 
     INWAV:  cpu time    4.0512: real time    4.0746
 Broyden mixing: mesh for mixing (old mesh)
   NGX = 19   NGY = 19   NGZ = 85
  (NGX  = 80   NGY  = 80   NGZ  =360)
  gives a total of  30685 points

 charge density for first step will be calculated from the start-wavefunctions


--------------------------------------------------------------------------------------------------------


 Maximum index for augmentation-charges         1194 (set IRDMAX)


--------------------------------------------------------------------------------------------------------


 initial charge from wavefunction
 First call to EWALD:  gamma=   0.202
 Maximum number of real-space cells 5x 5x 1
 Maximum number of reciprocal cells 2x 2x 7

    FEWALD:  cpu time    0.0016: real time    0.0016


--------------------------------------- Iteration      1(   1)  ---------------------------------------


    POTLOK:  cpu time    0.0421: real time    0.0436
    SETDIJ:  cpu time    0.0036: real time    0.0038
     EDDAV:  cpu time   11.3186: real time   11.3547
       DOS:  cpu time    0.0053: real time    0.0053
    CHARGE:  cpu time    0.5739: real time    0.5753
    MIXING:  cpu time    0.0023: real time    0.0027
    --------------------------------------------
      LOOP:  cpu time   11.9458: real time   11.9855

 eigenvalue-minimisations  : 15180
 total energy-change (2. order) :-0.5757975E+02  (-0.8092175E-02)
 number of electron     126.0000000 magnetization 
 augmentation part       51.2719675 magnetization 

 Broyden mixing:
  rms(total) = 0.88364E-01    rms(broyden)= 0.88353E-01
  rms(prec ) = 0.11464E+00
  weight for this iteration     100.00

 Free energy of the ion-electron system (eV)
  ---------------------------------------------------
  alpha Z        PSCENC =       150.55514013
  Ewald energy   TEWEN  =     45506.09251796
  -Hartree energ DENC   =    -55783.61352076
  -exchange      EXHF   =         0.00000000
  -V(xc)+E(xc)   XCENC  =      -336.45511999
  PAW double counting   =     11764.07232126   -11030.90435534
  entropy T*S    EENTRO =        -0.03057598
  eigenvalues    EBANDS =      -470.25709633
  atomic energy  EATOM  =     10142.96093813
  Solvation  Ediel_sol  =         0.00000000
  ---------------------------------------------------
  free energy    TOTEN  =       -57.57975094 eV

  energy without entropy =      -57.54917495  energy(sigma->0) =      -57.56446295


--------------------------------------------------------------------------------------------------------




--------------------------------------- Iteration      1(   2)  ---------------------------------------


    POTLOK:  cpu time    0.0389: real time    0.0390
    SETDIJ:  cpu time    0.0033: real time    0.0033
    EDDIAG:  cpu time    1.9256: real time    1.9311
  RMM-DIIS:  cpu time    8.8892: real time    8.9143
    ORTHCH:  cpu time    0.1964: real time    0.1970
       DOS:  cpu time    0.0050: real time    0.0050
    CHARGE:  cpu time    0.5718: real time    0.5733
    MIXING:  cpu time    0.0019: real time    0.0020
    --------------------------------------------
      LOOP:  cpu time   11.6321: real time   11.6651

 eigenvalue-minimisations  : 15472
 total energy-change (2. order) :-0.3200623E+00  (-0.1506674E-01)
 number of electron     126.0000000 magnetization 
 augmentation part       51.4083148 magnetization 

 Broyden mixing:
  rms(total) = 0.60139E+00    rms(broyden)= 0.60131E+00
  rms(prec ) = 0.80642E+00
  weight for this iteration     100.00

 eigenvalues of (default mixing * dielectric matrix)
  average eigenvalue GAMMA=   0.1218
  0.1218

 Free energy of the ion-electron system (eV)
  ---------------------------------------------------
  alpha Z        PSCENC =       150.55514013
  Ewald energy   TEWEN  =     45506.09251796
  -Hartree energ DENC   =    -55779.77863216
  -exchange      EXHF   =         0.00000000
  -V(xc)+E(xc)   XCENC  =      -336.41284442
  PAW double counting   =     11762.72275287   -11029.62558563
  entropy T*S    EENTRO =        -0.02904133
  eigenvalues    EBANDS =      -474.38505874
  atomic energy  EATOM  =     10142.96093813
  Solvation  Ediel_sol  =         0.00000000
  ---------------------------------------------------
  free energy    TOTEN  =       -57.89981321 eV

  energy without entropy =      -57.87077187  energy(sigma->0) =      -57.88529254


--------------------------------------------------------------------------------------------------------




--------------------------------------- Iteration      1(   3)  ---------------------------------------


    POTLOK:  cpu time    0.0389: real time    0.0391
    SETDIJ:  cpu time    0.0034: real time    0.0034
    EDDIAG:  cpu time    1.9186: real time    1.9234
  RMM-DIIS:  cpu time    8.7775: real time    8.8087
    ORTHCH:  cpu time    0.1958: real time    0.1963
       DOS:  cpu time    0.0050: real time    0.0050
    CHARGE:  cpu time    0.5737: real time    0.5751
    MIXING:  cpu time    0.0016: real time    0.0016
    --------------------------------------------
      LOOP:  cpu time   11.5144: real time   11.5527

 eigenvalue-minimisations  : 15179
 total energy-change (2. order) : 0.3157657E+00  (-0.8502634E-02)
 number of electron     126.0000000 magnetization 
 augmentation part       51.3068980 magnetization 

 Broyden mixing:
  rms(total) = 0.10458E+00    rms(broyden)= 0.10430E+00
  rms(prec ) = 0.12348E+00
  weight for this iteration     100.00

 eigenvalues of (default mixing * dielectric matrix)
  average eigenvalue GAMMA=   0.1615
  0.2096  0.1134

 Free energy of the ion-electron system (eV)
  ---------------------------------------------------
  alpha Z        PSCENC =       150.55514013
  Ewald energy   TEWEN  =     45506.09251796
  -Hartree energ DENC   =    -55780.74191360
  -exchange      EXHF   =         0.00000000
  -V(xc)+E(xc)   XCENC  =      -336.43443191
  PAW double counting   =     11762.96336505   -11029.81071665
  entropy T*S    EENTRO =        -0.02911389
  eigenvalues    EBANDS =      -473.13983275
  atomic energy  EATOM  =     10142.96093813
  Solvation  Ediel_sol  =         0.00000000
  ---------------------------------------------------
  free energy    TOTEN  =       -57.58404754 eV

  energy without entropy =      -57.55493365  energy(sigma->0) =      -57.56949060


--------------------------------------------------------------------------------------------------------




--------------------------------------- Iteration      1(   4)  ---------------------------------------


    POTLOK:  cpu time    0.0393: real time    0.0396
    SETDIJ:  cpu time    0.0033: real time    0.0033
    EDDIAG:  cpu time    1.9147: real time    1.9274
  RMM-DIIS:  cpu time    8.5433: real time    8.5677
    ORTHCH:  cpu time    0.1966: real time    0.1971
       DOS:  cpu time    0.0049: real time    0.0049
    CHARGE:  cpu time    0.5723: real time    0.5738
    MIXING:  cpu time    0.0017: real time    0.0017
    --------------------------------------------
      LOOP:  cpu time   11.2760: real time   11.3154

 eigenvalue-minimisations  : 14969
 total energy-change (2. order) : 0.1236028E-01  (-0.1129016E-02)
 number of electron     126.0000000 magnetization 
 augmentation part       51.3010611 magnetization 

 Broyden mixing:
  rms(total) = 0.24835E-01    rms(broyden)= 0.24777E-01
  rms(prec ) = 0.28695E-01
  weight for this iteration     100.00

 eigenvalues of (default mixing * dielectric matrix)
  average eigenvalue GAMMA=   0.2335
  0.3354  0.2564  0.1086

 Free energy of the ion-electron system (eV)
  ---------------------------------------------------
  alpha Z        PSCENC =       150.55514013
  Ewald energy   TEWEN  =     45506.09251796
  -Hartree energ DENC   =    -55781.53541524
  -exchange      EXHF   =         0.00000000
  -V(xc)+E(xc)   XCENC  =      -336.44644021
  PAW double counting   =     11763.14030657   -11029.98865320
  entropy T*S    EENTRO =        -0.02987524
  eigenvalues    EBANDS =      -472.32020616
  atomic energy  EATOM  =     10142.96093813
  Solvation  Ediel_sol  =         0.00000000
  ---------------------------------------------------
  free energy    TOTEN  =       -57.57168726 eV

  energy without entropy =      -57.54181202  energy(sigma->0) =      -57.55674964


--------------------------------------------------------------------------------------------------------




--------------------------------------- Iteration      1(   5)  ---------------------------------------


    POTLOK:  cpu time    0.0409: real time    0.0412
    SETDIJ:  cpu time    0.0034: real time    0.0034
    EDDIAG:  cpu time    1.9180: real time    1.9316
  RMM-DIIS:  cpu time    8.9112: real time    8.9452
    ORTHCH:  cpu time    0.1953: real time    0.1958
       DOS:  cpu time    0.0049: real time    0.0049
    CHARGE:  cpu time    0.5733: real time    0.5749
    MIXING:  cpu time    0.0016: real time    0.0016
    --------------------------------------------
      LOOP:  cpu time   11.6486: real time   11.6986

 eigenvalue-minimisations  : 15534
 total energy-change (2. order) : 0.3545426E-03  (-0.1802402E-03)
 number of electron     126.0000000 magnetization 
 augmentation part       51.3005308 magnetization 

 Broyden mixing:
  rms(total) = 0.19497E-01    rms(broyden)= 0.19489E-01
  rms(prec ) = 0.21544E-01
  weight for this iteration     100.00

 eigenvalues of (default mixing * dielectric matrix)
  average eigenvalue GAMMA=   0.3029
  0.5452  0.3748  0.1092  0.1824

 Free energy of the ion-electron system (eV)
  ---------------------------------------------------
  alpha Z        PSCENC =       150.55514013
  Ewald energy   TEWEN  =     45506.09251796
  -Hartree energ DENC   =    -55781.18044594
  -exchange      EXHF   =         0.00000000
  -V(xc)+E(xc)   XCENC  =      -336.44892869
  PAW double counting   =     11763.07040714   -11029.91396153
  entropy T*S    EENTRO =        -0.02967791
  eigenvalues    EBANDS =      -472.67732200
  atomic energy  EATOM  =     10142.96093813
  Solvation  Ediel_sol  =         0.00000000
  ---------------------------------------------------
  free energy    TOTEN  =       -57.57133271 eV

  energy without entropy =      -57.54165480  energy(sigma->0) =      -57.55649376


--------------------------------------------------------------------------------------------------------




--------------------------------------- Iteration      1(   6)  ---------------------------------------


    POTLOK:  cpu time    0.0400: real time    0.0403
    SETDIJ:  cpu time    0.0047: real time    0.0048
    EDDIAG:  cpu time    1.9172: real time    1.9242
  RMM-DIIS:  cpu time    6.2549: real time    6.2710
    ORTHCH:  cpu time    0.1950: real time    0.1956
       DOS:  cpu time    0.0048: real time    0.0048
    CHARGE:  cpu time    0.5702: real time    0.5793
    MIXING:  cpu time    0.0018: real time    0.0018
    --------------------------------------------
      LOOP:  cpu time    8.9886: real time    9.0218

 eigenvalue-minimisations  : 10449
 total energy-change (2. order) : 0.2511767E-03  (-0.3313476E-04)
 number of electron     126.0000000 magnetization 
 augmentation part       51.2977787 magnetization 

 Broyden mixing:
  rms(total) = 0.99925E-02    rms(broyden)= 0.99897E-02
  rms(prec ) = 0.11107E-01
  weight for this iteration     100.00

 eigenvalues of (default mixing * dielectric matrix)
  average eigenvalue GAMMA=   0.4304
  0.7852  0.7852  0.1088  0.2785  0.1942

 Free energy of the ion-electron system (eV)
  ---------------------------------------------------
  alpha Z        PSCENC =       150.55514013
  Ewald energy   TEWEN  =     45506.09251796
  -Hartree energ DENC   =    -55781.20075632
  -exchange      EXHF   =         0.00000000
  -V(xc)+E(xc)   XCENC  =      -336.44980123
  PAW double counting   =     11763.04093526   -11029.87873750
  entropy T*S    EENTRO =        -0.02982464
  eigenvalues    EBANDS =      -472.66149332
  atomic energy  EATOM  =     10142.96093813
  Solvation  Ediel_sol  =         0.00000000
  ---------------------------------------------------
  free energy    TOTEN  =       -57.57108154 eV

  energy without entropy =      -57.54125690  energy(sigma->0) =      -57.55616922


--------------------------------------------------------------------------------------------------------




--------------------------------------- Iteration      1(   7)  ---------------------------------------


    POTLOK:  cpu time    0.0401: real time    0.0404
    SETDIJ:  cpu time    0.0033: real time    0.0033
    EDDIAG:  cpu time    1.9199: real time    1.9249
  RMM-DIIS:  cpu time    5.3452: real time    5.3613
    ORTHCH:  cpu time    0.1960: real time    0.1965
       DOS:  cpu time    0.0052: real time    0.0052
    --------------------------------------------
      LOOP:  cpu time    7.5096: real time    7.5316

 eigenvalue-minimisations  :  8626
 total energy-change (2. order) : 0.1008610E-04  (-0.1794723E-04)
 number of electron     126.0000000 magnetization 
 augmentation part       51.2977787 magnetization 

 Free energy of the ion-electron system (eV)
  ---------------------------------------------------
  alpha Z        PSCENC =       150.55514013
  Ewald energy   TEWEN  =     45506.09251796
  -Hartree energ DENC   =    -55781.02443510
  -exchange      EXHF   =         0.00000000
  -V(xc)+E(xc)   XCENC  =      -336.44865774
  PAW double counting   =     11763.01869849   -11029.85463849
  entropy T*S    EENTRO =        -0.02981773
  eigenvalues    EBANDS =      -472.84081710
  atomic energy  EATOM  =     10142.96093813
  Solvation  Ediel_sol  =         0.00000000
  ---------------------------------------------------
  free energy    TOTEN  =       -57.57107145 eV

  energy without entropy =      -57.54125372  energy(sigma->0) =      -57.55616259


--------------------------------------------------------------------------------------------------------




 average (electrostatic) potential at core
  the test charge radii are     1.1199  0.7215
  (the norm of the test charge is              1.0000)
       1 -81.0181       2 -81.0030       3 -81.0016       4 -80.9964       5 -81.3319
       6 -81.3402       7 -81.5343       8 -81.3265       9 -81.7262      10 -81.7326
      11 -81.7323      12 -80.9246      13 -77.8194
 
 
 
 E-fermi :  -1.2230     XC(G=0):  -4.3725     alpha+bet : -4.4958


 k-point     1 :       0.0625    0.0625    0.0000
  band No.  band energies     occupation 
      1     -20.0368      2.00000
      2      -7.1453      2.00000
      3      -6.8699      2.00000
      4      -6.8656      2.00000
      5      -6.7635      2.00000
      6      -5.8187      2.00000
      7      -5.7015      2.00000
      8      -5.6446      2.00000
      9      -5.6358      2.00000
     10      -5.6150      2.00000
     11      -5.4364      2.00000
     12      -5.4261      2.00000
     13      -5.3879      2.00000
     14      -5.3227      2.00000
     15      -5.3220      2.00000
     16      -5.2036      2.00000
     17      -5.0837      2.00000
     18      -5.0771      2.00000
     19      -4.3601      2.00000
     20      -4.1315      2.00000
     21      -4.1132      2.00000
     22      -4.1023      2.00000
     23      -3.9167      2.00000
     24      -3.9149      2.00000
     25      -3.7945      2.00000
     26      -3.6767      2.00000
     27      -3.6484      2.00000
     28      -3.5009      2.00000
     29      -3.4569      2.00000
     30      -3.3580      2.00000
     31      -3.3447      2.00000
     32      -3.3254      2.00000
     33      -3.2522      2.00000
     34      -3.1722      2.00000
     35      -3.1694      2.00000
     36      -3.0746      2.00000
     37      -2.8112      2.00000
     38      -2.8044      2.00000
     39      -2.6265      2.00000
     40      -2.5018      2.00000
     41      -2.3705      2.00000
     42      -2.3659      2.00000
     43      -2.1374      2.00000
     44      -2.1347      2.00000
     45      -2.0768      2.00000
     46      -2.0618      2.00000
     47      -1.7546      2.00000
     48      -1.7060      2.00000
     49      -1.6764      2.00000
     50      -1.6231      2.00000
     51      -1.5434      2.00000
     52      -1.5241      2.00000
     53      -1.4306      2.00000
     54      -1.4145      2.00000
     55      -1.3909      2.00000
     56      -1.3351      1.99848
     57      -1.3214      1.99462
     58      -1.2909      1.94520
     59      -1.2188      0.90546
     60      -1.2086      0.68313
     61      -1.1492      0.03690
     62      -0.9950      0.00000
     63      -0.9863      0.00000
     64      -0.9715      0.00000
     65      -0.9089      0.00000
     66      -0.8816      0.00000
     67      -0.6014      0.00000
     68       0.8137      0.00000
     69       0.9390      0.00000
     70       1.1071      0.00000
     71       1.3306      0.00000
     72       1.9702      0.00000
     73       2.1797      0.00000
     74       2.4920      0.00000
     75       2.7814      0.00000
     76       2.8978      0.00000

 k-point     2 :       0.0000    0.0625    0.0000
  band No.  band energies     occupation 
      1     -20.0368      2.00000
      2      -7.1452      2.00000
      3      -6.8691      2.00000
      4      -6.8667      2.00000
      5      -6.7634      2.00000
      6      -5.8187      2.00000
      7      -5.7014      2.00000
      8      -5.6469      2.00000
      9      -5.6330      2.00000
     10      -5.6158      2.00000
     11      -5.4344      2.00000
     12      -5.4279      2.00000
     13      -5.3880      2.00000
     14      -5.3250      2.00000
     15      -5.3197      2.00000
     16      -5.2036      2.00000
     17      -5.0822      2.00000
     18      -5.0785      2.00000
     19      -4.3600      2.00000
     20      -4.1304      2.00000
     21      -4.1151      2.00000
     22      -4.1017      2.00000
     23      -3.9173      2.00000
     24      -3.9142      2.00000
     25      -3.7946      2.00000
     26      -3.6773      2.00000
     27      -3.6478      2.00000
     28      -3.5002      2.00000
     29      -3.4573      2.00000
     30      -3.3588      2.00000
     31      -3.3448      2.00000
     32      -3.3247      2.00000
     33      -3.2532      2.00000
     34      -3.1750      2.00000
     35      -3.1642      2.00000
     36      -3.0753      2.00000
     37      -2.8109      2.00000
     38      -2.8051      2.00000
     39      -2.6264      2.00000
     40      -2.5015      2.00000
     41      -2.3712      2.00000
     42      -2.3654      2.00000
     43      -2.1368      2.00000
     44      -2.1354      2.00000
     45      -2.0780      2.00000
     46      -2.0608      2.00000
     47      -1.7546      2.00000
     48      -1.7050      2.00000
     49      -1.6773      2.00000
     50      -1.6236      2.00000
     51      -1.5424      2.00000
     52      -1.5249      2.00000
     53      -1.4311      2.00000
     54      -1.4133      2.00000
     55      -1.3919      2.00000
     56      -1.3356      1.99855
     57      -1.3213      1.99457
     58      -1.2899      1.94173
     59      -1.2168      0.86033
     60      -1.2109      0.73234
     61      -1.1487      0.03574
     62      -0.9963      0.00000
     63      -0.9854      0.00000
     64      -0.9714      0.00000
     65      -0.9087      0.00000
     66      -0.8815      0.00000
     67      -0.6013      0.00000
     68       0.8144      0.00000
     69       0.9375      0.00000
     70       1.1079      0.00000
     71       1.3314      0.00000
     72       1.9698      0.00000
     73       2.1785      0.00000
     74       2.4922      0.00000
     75       2.7807      0.00000
     76       2.8982      0.00000

 k-point     3 :      -0.0625    0.0000    0.0000
  band No.  band energies     occupation 
      1     -20.0368      2.00000
      2      -7.1452      2.00000
      3      -6.8690      2.00000
      4      -6.8667      2.00000
      5      -6.7634      2.00000
      6      -5.8187      2.00000
      7      -5.7014      2.00000
      8      -5.6465      2.00000
      9      -5.6334      2.00000
     10      -5.6157      2.00000
     11      -5.4346      2.00000
     12      -5.4278      2.00000
     13      -5.3880      2.00000
     14      -5.3248      2.00000
     15      -5.3200      2.00000
     16      -5.2036      2.00000
     17      -5.0823      2.00000
     18      -5.0784      2.00000
     19      -4.3600      2.00000
     20      -4.1304      2.00000
     21      -4.1150      2.00000
     22      -4.1018      2.00000
     23      -3.9170      2.00000
     24      -3.9144      2.00000
     25      -3.7946      2.00000
     26      -3.6774      2.00000
     27      -3.6477      2.00000
     28      -3.5005      2.00000
     29      -3.4571      2.00000
     30      -3.3587      2.00000
     31      -3.3448      2.00000
     32      -3.3248      2.00000
     33      -3.2534      2.00000
     34      -3.1752      2.00000
     35      -3.1638      2.00000
     36      -3.0754      2.00000
     37      -2.8109      2.00000
     38      -2.8051      2.00000
     39      -2.6264      2.00000
     40      -2.5015      2.00000
     41      -2.3710      2.00000
     42      -2.3655      2.00000
     43      -2.1367      2.00000
     44      -2.1355      2.00000
     45      -2.0780      2.00000
     46      -2.0608      2.00000
     47      -1.7549      2.00000
     48      -1.7048      2.00000
     49      -1.6773      2.00000
     50      -1.6236      2.00000
     51      -1.5425      2.00000
     52      -1.5248      2.00000
     53      -1.4311      2.00000
     54      -1.4137      2.00000
     55      -1.3915      2.00000
     56      -1.3353      1.99851
     57      -1.3211      1.99446
     58      -1.2904      1.94349
     59      -1.2178      0.88399
     60      -1.2097      0.70708
     61      -1.1490      0.03630
     62      -0.9961      0.00000
     63      -0.9856      0.00000
     64      -0.9714      0.00000
     65      -0.9085      0.00000
     66      -0.8817      0.00000
     67      -0.6013      0.00000
     68       0.8149      0.00000
     69       0.9379      0.00000
     70       1.1072      0.00000
     71       1.3310      0.00000
     72       1.9686      0.00000
     73       2.1796      0.00000
     74       2.4927      0.00000
     75       2.7820      0.00000
     76       2.8971      0.00000

 k-point     4 :       0.1875    0.0625    0.0000
  band No.  band energies     occupation 
      1     -20.0343      2.00000
      2      -7.0913      2.00000
      3      -6.8187      2.00000
      4      -6.7881      2.00000
      5      -6.6489      2.00000
      6      -5.6818      2.00000
      7      -5.5892      2.00000
      8      -5.5642      2.00000
      9      -5.5364      2.00000
     10      -5.4802      2.00000
     11      -5.3839      2.00000
     12      -5.3413      2.00000
     13      -5.3052      2.00000
     14      -5.2514      2.00000
     15      -5.2442      2.00000
     16      -5.1165      2.00000
     17      -5.0087      2.00000
     18      -4.9643      2.00000
     19      -4.3376      2.00000
     20      -4.1464      2.00000
     21      -4.1257      2.00000
     22      -4.0819      2.00000
     23      -3.8683      2.00000
     24      -3.8502      2.00000
     25      -3.7943      2.00000
     26      -3.7392      2.00000
     27      -3.6573      2.00000
     28      -3.5574      2.00000
     29      -3.4366      2.00000
     30      -3.4012      2.00000
     31      -3.3680      2.00000
     32      -3.3262      2.00000
     33      -3.3068      2.00000
     34      -3.2288      2.00000
     35      -3.1480      2.00000
     36      -3.0556      2.00000
     37      -2.8979      2.00000
     38      -2.8740      2.00000
     39      -2.6835      2.00000
     40      -2.5548      2.00000
     41      -2.4712      2.00000
     42      -2.4379      2.00000
     43      -2.2819      2.00000
     44      -2.2409      2.00000
     45      -2.1490      2.00000
     46      -2.0740      2.00000
     47      -1.9403      2.00000
     48      -1.9165      2.00000
     49      -1.8044      2.00000
     50      -1.7441      2.00000
     51      -1.6580      2.00000
     52      -1.5993      2.00000
     53      -1.5751      2.00000
     54      -1.5661      2.00000
     55      -1.4787      2.00000
     56      -1.4428      2.00000
     57      -1.4226      2.00000
     58      -1.3766      1.99999
     59      -1.3245      1.99591
     60      -1.3020      1.97459
     61      -1.2853      1.92202
     62      -1.1754      0.17860
     63      -1.1506      0.04072
     64      -1.1144      0.00213
     65      -1.0211      0.00000
     66      -0.8996      0.00000
     67      -0.2604      0.00000
     68       0.1885      0.00000
     69       0.6577      0.00000
     70       1.1988      0.00000
     71       1.3981      0.00000
     72       1.6172      0.00000
     73       2.0882      0.00000
     74       2.7991      0.00000
     75       3.2269      0.00000
     76       3.4068      0.00000

 k-point     5 :       0.1250    0.1875    0.0000
  band No.  band energies     occupation 
      1     -20.0343      2.00000
      2      -7.0918      2.00000
      3      -6.8182      2.00000
      4      -6.7881      2.00000
      5      -6.6489      2.00000
      6      -5.6817      2.00000
      7      -5.5897      2.00000
      8      -5.5625      2.00000
      9      -5.5380      2.00000
     10      -5.4798      2.00000
     11      -5.3847      2.00000
     12      -5.3410      2.00000
     13      -5.3047      2.00000
     14      -5.2506      2.00000
     15      -5.2445      2.00000
     16      -5.1167      2.00000
     17      -5.0090      2.00000
     18      -4.9641      2.00000
     19      -4.3379      2.00000
     20      -4.1454      2.00000
     21      -4.1264      2.00000
     22      -4.0817      2.00000
     23      -3.8693      2.00000
     24      -3.8495      2.00000
     25      -3.7943      2.00000
     26      -3.7388      2.00000
     27      -3.6571      2.00000
     28      -3.5577      2.00000
     29      -3.4369      2.00000
     30      -3.4033      2.00000
     31      -3.3660      2.00000
     32      -3.3247      2.00000
     33      -3.3070      2.00000
     34      -3.2292      2.00000
     35      -3.1502      2.00000
     36      -3.0549      2.00000
     37      -2.8973      2.00000
     38      -2.8736      2.00000
     39      -2.6839      2.00000
     40      -2.5552      2.00000
     41      -2.4723      2.00000
     42      -2.4369      2.00000
     43      -2.2821      2.00000
     44      -2.2404      2.00000
     45      -2.1490      2.00000
     46      -2.0741      2.00000
     47      -1.9396      2.00000
     48      -1.9161      2.00000
     49      -1.8053      2.00000
     50      -1.7439      2.00000
     51      -1.6573      2.00000
     52      -1.6001      2.00000
     53      -1.5732      2.00000
     54      -1.5680      2.00000
     55      -1.4780      2.00000
     56      -1.4428      2.00000
     57      -1.4235      2.00000
     58      -1.3764      1.99999
     59      -1.3241      1.99577
     60      -1.3024      1.97524
     61      -1.2849      1.92015
     62      -1.1751      0.17515
     63      -1.1511      0.04188
     64      -1.1150      0.00225
     65      -1.0207      0.00000
     66      -0.9003      0.00000
     67      -0.2606      0.00000
     68       0.1876      0.00000
     69       0.6579      0.00000
     70       1.1996      0.00000
     71       1.3988      0.00000
     72       1.6178      0.00000
     73       2.0883      0.00000
     74       2.7984      0.00000
     75       3.2273      0.00000
     76       3.4054      0.00000

 k-point     6 :      -0.0625    0.1250    0.0000
  band No.  band energies     occupation 
      1     -20.0343      2.00000
      2      -7.0906      2.00000
      3      -6.8198      2.00000
      4      -6.7879      2.00000
      5      -6.6486      2.00000
      6      -5.6821      2.00000
      7      -5.5895      2.00000
      8      -5.5632      2.00000
      9      -5.5374      2.00000
     10      -5.4799      2.00000
     11      -5.3823      2.00000
     12      -5.3421      2.00000
     13      -5.3063      2.00000
     14      -5.2522      2.00000
     15      -5.2434      2.00000
     16      -5.1170      2.00000
     17      -5.0073      2.00000
     18      -4.9653      2.00000
     19      -4.3372      2.00000
     20      -4.1461      2.00000
     21      -4.1260      2.00000
     22      -4.0829      2.00000
     23      -3.8697      2.00000
     24      -3.8492      2.00000
     25      -3.7947      2.00000
     26      -3.7394      2.00000
     27      -3.6556      2.00000
     28      -3.5565      2.00000
     29      -3.4377      2.00000
     30      -3.4026      2.00000
     31      -3.3668      2.00000
     32      -3.3255      2.00000
     33      -3.3069      2.00000
     34      -3.2283      2.00000
     35      -3.1472      2.00000
     36      -3.0548      2.00000
     37      -2.8968      2.00000
     38      -2.8764      2.00000
     39      -2.6836      2.00000
     40      -2.5540      2.00000
     41      -2.4691      2.00000
     42      -2.4403      2.00000
     43      -2.2818      2.00000
     44      -2.2418      2.00000
     45      -2.1487      2.00000
     46      -2.0739      2.00000
     47      -1.9395      2.00000
     48      -1.9167      2.00000
     49      -1.8062      2.00000
     50      -1.7439      2.00000
     51      -1.6584      2.00000
     52      -1.5992      2.00000
     53      -1.5749      2.00000
     54      -1.5666      2.00000
     55      -1.4773      2.00000
     56      -1.4415      2.00000
     57      -1.4232      2.00000
     58      -1.3763      1.99999
     59      -1.3239      1.99569
     60      -1.3020      1.97464
     61      -1.2853      1.92209
     62      -1.1766      0.18903
     63      -1.1513      0.04256
     64      -1.1135      0.00195
     65      -1.0214      0.00000
     66      -0.8994      0.00000
     67      -0.2604      0.00000
     68       0.1883      0.00000
     69       0.6591      0.00000
     70       1.1991      0.00000
     71       1.3978      0.00000
     72       1.6163      0.00000
     73       2.0854      0.00000
     74       2.8012      0.00000
     75       3.2262      0.00000
     76       3.4047      0.00000

 k-point     7 :       0.1250   -0.0625    0.0000
  band No.  band energies     occupation 
      1     -20.0343      2.00000
      2      -7.0906      2.00000
      3      -6.8198      2.00000
      4      -6.7879      2.00000
      5      -6.6487      2.00000
      6      -5.6821      2.00000
      7      -5.5894      2.00000
      8      -5.5630      2.00000
      9      -5.5378      2.00000
     10      -5.4798      2.00000
     11      -5.3823      2.00000
     12      -5.3421      2.00000
     13      -5.3062      2.00000
     14      -5.2521      2.00000
[...]
     67      -0.8869      0.00000
     68      -0.0178      0.00000
     69       1.0885      0.00000
     70       1.2943      0.00000
     71       1.4780      0.00000
     72       1.8621      0.00000
     73       2.5432      0.00000
     74       2.9229      0.00000
     75       3.4260      0.00000
     76       4.2059      0.00000

 k-point    94 :      -0.4375    0.4375    0.0000
  band No.  band energies     occupation 
      1     -20.0249      2.00000
      2      -7.0614      2.00000
      3      -6.6283      2.00000
      4      -6.2858      2.00000
      5      -5.6301      2.00000
      6      -5.5313      2.00000
      7      -5.0815      2.00000
      8      -5.0792      2.00000
      9      -5.0581      2.00000
     10      -4.9381      2.00000
     11      -4.8736      2.00000
     12      -4.8254      2.00000
     13      -4.7753      2.00000
     14      -4.6700      2.00000
     15      -4.6280      2.00000
     16      -4.5770      2.00000
     17      -4.5274      2.00000
     18      -4.4395      2.00000
     19      -4.4280      2.00000
     20      -4.3830      2.00000
     21      -4.1923      2.00000
     22      -4.1516      2.00000
     23      -4.0360      2.00000
     24      -4.0059      2.00000
     25      -3.9552      2.00000
     26      -3.9268      2.00000
     27      -3.8216      2.00000
     28      -3.7337      2.00000
     29      -3.6802      2.00000
     30      -3.5941      2.00000
     31      -3.4625      2.00000
     32      -3.4038      2.00000
     33      -3.3594      2.00000
     34      -3.2847      2.00000
     35      -3.2441      2.00000
     36      -3.1804      2.00000
     37      -3.1515      2.00000
     38      -3.1361      2.00000
     39      -3.0910      2.00000
     40      -3.0361      2.00000
     41      -2.8455      2.00000
     42      -2.7767      2.00000
     43      -2.7384      2.00000
     44      -2.7133      2.00000
     45      -2.6444      2.00000
     46      -2.5832      2.00000
     47      -2.5257      2.00000
     48      -2.4555      2.00000
     49      -2.4287      2.00000
     50      -2.3465      2.00000
     51      -2.2885      2.00000
     52      -2.1903      2.00000
     53      -2.1470      2.00000
     54      -2.1078      2.00000
     55      -1.9521      2.00000
     56      -1.9376      2.00000
     57      -1.8310      2.00000
     58      -1.8108      2.00000
     59      -1.6915      2.00000
     60      -1.5439      2.00000
     61      -1.4323      2.00000
     62      -1.3977      2.00000
     63      -1.2995      1.96950
     64      -1.2553      1.63913
     65      -1.2069      0.64926
     66      -1.0057      0.00000
     67      -0.8693      0.00000
     68      -0.0963      0.00000
     69       0.2844      0.00000
     70       1.2363      0.00000
     71       1.5838      0.00000
     72       1.9595      0.00000
     73       2.7810      0.00000
     74       3.5853      0.00000
     75       3.7538      0.00000
     76       3.9545      0.00000

 k-point    95 :       0.1250   -0.4375    0.0000
  band No.  band energies     occupation 
      1     -20.0249      2.00000
      2      -7.0599      2.00000
      3      -6.6288      2.00000
      4      -6.2869      2.00000
      5      -5.6326      2.00000
      6      -5.5294      2.00000
      7      -5.0850      2.00000
      8      -5.0779      2.00000
      9      -5.0540      2.00000
     10      -4.9419      2.00000
     11      -4.8758      2.00000
     12      -4.8291      2.00000
     13      -4.7758      2.00000
     14      -4.6677      2.00000
     15      -4.6321      2.00000
     16      -4.5757      2.00000
     17      -4.5307      2.00000
     18      -4.4408      2.00000
     19      -4.4267      2.00000
     20      -4.3806      2.00000
     21      -4.1898      2.00000
     22      -4.1503      2.00000
     23      -4.0319      2.00000
     24      -4.0075      2.00000
     25      -3.9523      2.00000
     26      -3.9281      2.00000
     27      -3.8209      2.00000
     28      -3.7308      2.00000
     29      -3.6799      2.00000
     30      -3.5934      2.00000
     31      -3.4622      2.00000
     32      -3.4019      2.00000
     33      -3.3603      2.00000
     34      -3.2824      2.00000
     35      -3.2412      2.00000
     36      -3.1825      2.00000
     37      -3.1560      2.00000
     38      -3.1364      2.00000
     39      -3.0905      2.00000
     40      -3.0349      2.00000
     41      -2.8478      2.00000
     42      -2.7767      2.00000
     43      -2.7361      2.00000
     44      -2.7157      2.00000
     45      -2.6470      2.00000
     46      -2.5810      2.00000
     47      -2.5255      2.00000
     48      -2.4548      2.00000
     49      -2.4292      2.00000
     50      -2.3461      2.00000
     51      -2.2873      2.00000
     52      -2.1904      2.00000
     53      -2.1461      2.00000
     54      -2.1065      2.00000
     55      -1.9548      2.00000
     56      -1.9351      2.00000
     57      -1.8324      2.00000
     58      -1.8115      2.00000
     59      -1.6914      2.00000
     60      -1.5430      2.00000
     61      -1.4310      2.00000
     62      -1.3979      2.00000
     63      -1.3010      1.97266
     64      -1.2560      1.64907
     65      -1.2063      0.63610
     66      -1.0053      0.00000
     67      -0.8675      0.00000
     68      -0.0990      0.00000
     69       0.2841      0.00000
     70       1.2359      0.00000
     71       1.5839      0.00000
     72       1.9579      0.00000
     73       2.7804      0.00000
     74       3.5856      0.00000
     75       3.7524      0.00000
     76       3.9533      0.00000

 k-point    96 :      -0.4375    0.1250    0.0000
  band No.  band energies     occupation 
      1     -20.0249      2.00000
      2      -7.0598      2.00000
      3      -6.6287      2.00000
      4      -6.2870      2.00000
      5      -5.6322      2.00000
      6      -5.5296      2.00000
      7      -5.0844      2.00000
      8      -5.0787      2.00000
      9      -5.0541      2.00000
     10      -4.9413      2.00000
     11      -4.8751      2.00000
     12      -4.8285      2.00000
     13      -4.7758      2.00000
     14      -4.6679      2.00000
     15      -4.6316      2.00000
     16      -4.5755      2.00000
     17      -4.5302      2.00000
     18      -4.4411      2.00000
     19      -4.4268      2.00000
     20      -4.3811      2.00000
     21      -4.1904      2.00000
     22      -4.1501      2.00000
     23      -4.0328      2.00000
     24      -4.0078      2.00000
     25      -3.9521      2.00000
     26      -3.9285      2.00000
     27      -3.8213      2.00000
     28      -3.7308      2.00000
     29      -3.6803      2.00000
     30      -3.5937      2.00000
     31      -3.4630      2.00000
     32      -3.4021      2.00000
     33      -3.3604      2.00000
     34      -3.2826      2.00000
     35      -3.2406      2.00000
     36      -3.1821      2.00000
     37      -3.1555      2.00000
     38      -3.1364      2.00000
     39      -3.0907      2.00000
     40      -3.0350      2.00000
     41      -2.8477      2.00000
     42      -2.7766      2.00000
     43      -2.7365      2.00000
     44      -2.7153      2.00000
     45      -2.6467      2.00000
     46      -2.5813      2.00000
     47      -2.5257      2.00000
     48      -2.4547      2.00000
     49      -2.4292      2.00000
     50      -2.3454      2.00000
     51      -2.2874      2.00000
     52      -2.1905      2.00000
     53      -2.1468      2.00000
     54      -2.1065      2.00000
     55      -1.9548      2.00000
     56      -1.9348      2.00000
     57      -1.8325      2.00000
     58      -1.8114      2.00000
     59      -1.6912      2.00000
     60      -1.5440      2.00000
     61      -1.4310      2.00000
     62      -1.3976      2.00000
     63      -1.3007      1.97204
     64      -1.2555      1.64203
     65      -1.2063      0.63706
     66      -1.0052      0.00000
     67      -0.8678      0.00000
     68      -0.0988      0.00000
     69       0.2842      0.00000
     70       1.2360      0.00000
     71       1.5843      0.00000
     72       1.9580      0.00000
     73       2.7803      0.00000
     74       3.5857      0.00000
     75       3.7530      0.00000
     76       3.9534      0.00000


--------------------------------------------------------------------------------------------------------


 soft charge-density along one line, spin component           1
         0         1         2         3         4         5         6         7         8         9
 total charge-density along one line
 
 pseudopotential strength for first ion, spin component:           1
 -7.235  -0.000   0.000  -0.012  -0.000  -7.259  -0.000   0.000
 -0.000  -7.120  -0.000  -0.000  -0.012  -0.000  -7.150  -0.000
  0.000  -0.000  -7.105  -0.000  -0.000   0.000  -0.000  -7.135
 -0.012  -0.000  -0.000  -7.120  -0.000  -0.012  -0.000  -0.000
 -0.000  -0.012  -0.000  -0.000  -7.235  -0.000  -0.011  -0.000
 -7.259  -0.000   0.000  -0.012  -0.000  -7.259  -0.000   0.000
 -0.000  -7.150  -0.000  -0.000  -0.011  -0.000  -7.154  -0.000
  0.000  -0.000  -7.135  -0.000  -0.000   0.000  -0.000  -7.141
 -0.012  -0.000  -0.000  -7.150  -0.000  -0.011  -0.000  -0.000
 -0.000  -0.011  -0.000  -0.000  -7.259  -0.000  -0.011  -0.000
  0.000   0.000  -0.030   0.000   0.000   0.000   0.000  -0.028
  0.000   0.000  -0.050   0.000   0.000   0.000   0.000  -0.048
  0.000  -0.015  -0.000   0.000   0.000   0.000  -0.014  -0.000
  0.000   0.000  -0.018   0.000   0.000   0.000   0.000  -0.017
  0.000   0.000  -0.000  -0.015   0.000   0.000   0.000  -0.000
  0.000  -0.017  -0.000   0.000   0.000   0.000  -0.016  -0.000
  0.000   0.000  -0.020   0.000   0.000   0.000   0.000  -0.019
  0.000   0.000  -0.000  -0.017   0.000   0.000   0.000  -0.000
 total augmentation occupancy for first ion, spin component:           1
  2.193   0.000   0.000  -0.212  -0.000  -0.973  -0.000  -0.000   0.070   0.000   0.000   0.000  -0.001  -0.000  -0.020   0.000
  0.000   2.630  -0.001  -0.000  -0.212  -0.000  -0.962   0.000   0.000   0.077  -0.001   0.000  -0.152  -0.000  -0.000  -0.009
  0.000  -0.001   2.705   0.000  -0.001  -0.000   0.000  -1.186  -0.000   0.000   0.730  -0.202   0.000  -0.124   0.000  -0.000
 -0.212  -0.000   0.000   2.627   0.000   0.077   0.000  -0.000  -0.961  -0.000  -0.001   0.000  -0.000  -0.000  -0.152   0.000
 -0.000  -0.212  -0.001   0.000   2.194   0.000   0.070   0.000  -0.000  -0.973  -0.000   0.000  -0.019   0.000  -0.001   0.003
 -0.973  -0.000  -0.000   0.077   0.000   1.475   0.000   0.000   0.017  -0.000  -0.000   0.000   0.001   0.000   0.026  -0.000
 -0.000  -0.962   0.000   0.000   0.070   0.000   1.162   0.000  -0.000   0.017   0.001  -0.000   0.170   0.000   0.000  -0.015
 -0.000   0.000  -1.186  -0.000   0.000   0.000   0.000   1.498   0.000  -0.000  -0.476   0.061  -0.000   0.210  -0.001   0.000
  0.070   0.000  -0.000  -0.961  -0.000   0.017  -0.000   0.000   1.162   0.000   0.000  -0.000   0.000   0.001   0.170  -0.000
  0.000   0.077   0.000  -0.000  -0.973  -0.000   0.017  -0.000   0.000   1.476   0.000  -0.000   0.025   0.000   0.001  -0.003
  0.000  -0.001   0.730  -0.001  -0.000  -0.000   0.001  -0.476   0.000   0.000   1.974  -0.334   0.000   0.187   0.001  -0.000
  0.000   0.000  -0.202   0.000   0.000   0.000  -0.000   0.061  -0.000  -0.000  -0.334   0.064  -0.000  -0.040  -0.000   0.000
 -0.001  -0.152   0.000  -0.000  -0.019   0.001   0.170  -0.000   0.000   0.025   0.000  -0.000   0.185   0.000  -0.000  -0.012
 -0.000  -0.000  -0.124  -0.000   0.000   0.000   0.000   0.210   0.001   0.000   0.187  -0.040   0.000   0.109   0.000  -0.000
 -0.020  -0.000   0.000  -0.152  -0.001   0.026   0.000  -0.001   0.170   0.001   0.001  -0.000  -0.000   0.000   0.185  -0.000
  0.000  -0.009  -0.000   0.000   0.003  -0.000  -0.015   0.000  -0.000  -0.003  -0.000   0.000  -0.012  -0.000  -0.000   0.001
  0.000   0.000  -0.018   0.000   0.000  -0.000  -0.000  -0.015  -0.000  -0.000  -0.027   0.007  -0.000  -0.009  -0.000   0.000
  0.003   0.000  -0.000  -0.009   0.000  -0.003  -0.000   0.000  -0.015  -0.000  -0.000   0.000  -0.000  -0.000  -0.012   0.000


------------------------ aborting loop because EDIFF is reached ----------------------------------------


    CHARGE:  cpu time    0.5738: real time    0.5753
    FORLOC:  cpu time    0.0045: real time    0.0046
    FORNL :  cpu time    1.8833: real time    1.8962
    STRESS:  cpu time    3.8864: real time    3.8986
    FORCOR:  cpu time    0.0434: real time    0.0436
    FORHAR:  cpu time    0.0117: real time    0.0118
    MIXING:  cpu time    0.0018: real time    0.0018
    OFIELD:  cpu time    0.0001: real time    0.0001

  FORCE on cell =-STRESS in cart. coord.  units (eV):
  Direction    XX          YY          ZZ          XY          YZ          ZX
  --------------------------------------------------------------------------------------
  Alpha Z   150.55514   150.55514   150.55514
  Ewald   52275.88018 52274.80138-59044.59769     0.59421     0.34440     0.12028
  Hartree 54654.47755 54653.98185-53526.79700     0.29624     0.09101    -0.01560
  E(xc)    -655.85619  -655.85770  -661.83322     0.00122     0.00363     0.00266
  Local  ************************110472.87407    -0.86845    -0.37938    -0.07291
  n-local   -81.21372   -81.22961   -94.56813     0.00402     0.01466     0.00255
  augment   890.11815   890.12013   910.56807    -0.00064    -0.02444    -0.01062
  Kinetic  1748.95766  1748.96785  1793.72640    -0.00720    -0.02981    -0.00522
  Fock        0.00000     0.00000     0.00000     0.00000     0.00000     0.00000
  -------------------------------------------------------------------------------------
  Total      -4.61258    -4.64791    -0.07236     0.01941     0.02007     0.02114
  in kB     -10.96586   -11.04985    -0.17203     0.04615     0.04772     0.05025
  external pressure =       -7.40 kB  Pullay stress =        0.00 kB


 VOLUME and BASIS-vectors are now :
 -----------------------------------------------------------------------------
  energy-cutoff  :      450.00
  volume of cell :      673.93
      direct lattice vectors                 reciprocal lattice vectors
     5.625168795  0.000000000  0.000000000     0.177772443 -0.102636968  0.000000000
     2.812584397  4.871539077  0.000000000     0.000000000  0.205273936  0.000000000
     0.000000000  0.000000000 24.592931088     0.000000000  0.000000000  0.040662091

  length of vectors
     5.625168795  5.625168795 24.592931088     0.205273936  0.205273936  0.040662091


 FORCES acting on ions
    electron-ion (+dipol)            ewald-force                    non-local-force                 convergence-correction
 -----------------------------------------------------------------------------------------------
   0.623E+00 0.394E+00 0.201E+04   -.601E+00 -.354E+00 -.201E+04   -.542E-02 -.266E-02 -.255E+01   -.218E-01 -.408E-01 0.471E-01
   -.743E+00 0.527E+01 0.199E+04   0.720E+00 -.516E+01 -.199E+04   0.108E-01 -.106E+00 -.239E+01   0.232E-01 -.259E-02 0.281E-01
   0.417E+01 -.327E+01 0.199E+04   -.411E+01 0.318E+01 -.199E+04   -.877E-01 0.602E-01 -.239E+01   0.343E-01 0.357E-01 0.533E-01
   -.411E+01 -.238E+01 0.199E+04   0.405E+01 0.233E+01 -.199E+04   0.801E-01 0.436E-01 -.240E+01   -.370E-01 0.699E-02 0.756E-01
   -.383E+00 0.872E+00 0.160E+03   0.276E+00 -.818E+00 -.160E+03   0.104E+00 -.686E-01 0.362E+00   -.214E-02 0.520E-02 0.378E+00
   0.388E+00 0.270E+00 0.160E+03   -.271E+00 -.210E+00 -.161E+03   -.108E+00 -.628E-01 0.369E+00   -.548E-02 0.322E-02 0.372E+00
   -.384E+00 -.289E+00 0.913E+02   0.354E+00 0.276E+00 -.899E+02   0.189E-01 0.128E-01 -.176E+01   0.125E-01 0.156E-02 0.392E+00
   0.507E+00 -.782E+00 0.160E+03   -.508E+00 0.666E+00 -.160E+03   -.593E-02 0.124E+00 0.360E+00   -.236E-02 -.868E-02 0.372E+00
   0.846E+02 0.487E+02 -.174E+04   -.846E+02 -.487E+02 0.174E+04   -.103E-02 0.238E-02 0.858E+00   0.625E-01 0.766E-02 0.292E+00
   -.843E+02 0.487E+02 -.174E+04   0.844E+02 -.487E+02 0.173E+04   -.197E-01 0.166E-01 0.882E+00   -.605E-01 -.200E-01 0.315E+00
   0.124E+00 -.973E+02 -.174E+04   -.102E+00 0.974E+02 0.173E+04   0.223E-02 -.259E-01 0.882E+00   -.227E-01 -.255E-01 0.340E+00
   -.577E-01 0.174E-01 -.174E+04   0.258E-01 -.680E-01 0.174E+04   0.307E-02 0.471E-03 0.291E+01   0.312E-01 0.507E-01 0.308E+00
   -.304E+00 -.181E+00 -.156E+04   0.421E+00 0.264E+00 0.159E+04   -.456E-01 -.266E-01 -.260E+02   -.695E-01 -.534E-01 0.541E-01
 -----------------------------------------------------------------------------------------------
   0.115E+00 0.742E-01 0.279E+02   0.268E-13 0.500E-14 0.682E-12   -.539E-01 -.319E-01 -.309E+02   -.578E-01 -.399E-01 0.303E+01
 
 
 POSITION                                       TOTAL-FORCE (eV/Angst)
 -----------------------------------------------------------------------------------
      1.40786      0.81447      9.87577        -0.005722     -0.003527     -0.001518
      4.21942      0.81081      9.90135         0.010942      0.003999     -0.010018
      2.81049      3.25124      9.90167         0.009440      0.006878     -0.009065
      5.63142      3.25295      9.89838        -0.013878     -0.008022      0.001798
      5.63240      1.62467     12.17956        -0.004568     -0.009253      0.001910
      2.81011      1.62312     12.17886         0.002865      0.001031      0.008397
      7.03502      4.06221     12.29878         0.001577      0.001709     -0.014446
      4.22247      4.06659     12.17964        -0.009105      0.000113     -0.000383
      8.40362      4.85156     14.54643         0.013254      0.009116     -0.007271
      5.65911      4.85211     14.54100        -0.010357      0.008885      0.013930
      7.03183      2.47477     14.54127         0.001393     -0.013882      0.013944
      4.21929      2.43592     14.44054         0.002125      0.000402     -0.007547
      1.40753      0.81228     15.67432         0.002032      0.002552      0.010271
 -----------------------------------------------------------------------------------
    total drift:                                0.003478      0.002425     -0.004396


--------------------------------------------------------------------------------------------------------



  FREE ENERGIE OF THE ION-ELECTRON SYSTEM (eV)
  ---------------------------------------------------
  free  energy   TOTEN  =       -57.57107145 eV

  energy  without entropy=      -57.54125372  energy(sigma->0) =      -57.55616259
 


--------------------------------------------------------------------------------------------------------


    POTLOK:  cpu time    0.0430: real time    0.0431


--------------------------------------------------------------------------------------------------------


 writing wavefunctions
     LOOP+:  cpu time   88.2565: real time   88.7907
    4ORBIT:  cpu time    0.0000: real time    0.0000

 total amount of memory used by VASP MPI-rank0   147598. kBytes
=======================================================================

   base      :      30000. kBytes
   nonl-proj :      51923. kBytes
   fftplans  :       3895. kBytes
   grid      :       6300. kBytes
   one-center:         31. kBytes
   wavefun   :      55449. kBytes
 
  
  
 General timing and accounting informations for this job:
 ========================================================
  
                  Total CPU time used (sec):       98.642
                            User time (sec):       93.664
                          System time (sec):        4.978
                         Elapsed time (sec):       99.492
  
                   Maximum memory used (kb):      204608.
                   Average memory used (kb):           0.
  
                          Minor page faults:        61378
                          Major page faults:            0
                 Voluntary context switches:         1487
