 vasp.5.4.4.18Apr17-6-g9f103f2a35 (build Aug 15 2018 17:53:46) complex          
  
 executed on        TETRALITH-B01 date 2020.10.26  12:30:54
 running on   32 total cores
 distrk:  each k-point on   32 cores,    1 groups
 distr:  one band on NCORES_PER_BAND=   8 cores,    4 groups


--------------------------------------------------------------------------------------------------------


 INCAR:
 POTCAR:    PAW_PBE Pd 04Jan2005                  
 POTCAR:    PAW_PBE Au 04Oct2007                  
 POTCAR:    PAW_PBE O 08Apr2002                   
 POTCAR:    PAW_PBE C 08Apr2002                   
 POTCAR:    PAW_PBE Pd 04Jan2005                  
   VRHFIN =Pd : s1 d9                                                           
   LEXCH  = PE                                                                  
   EATOM  =   809.7530 eV,   59.5152 Ry                                         
                                                                                
   TITEL  = PAW_PBE Pd 04Jan2005                                                
   LULTRA =        F    use ultrasoft PP ?                                      
   IUNSCR =        1    unscreen: 0-lin 1-nonlin 2-no                           
   RPACOR =    2.000    partial core radius                                     
   POMASS =  106.420; ZVAL   =   10.000    mass and valenz                      
   RCORE  =    2.600    outmost cutoff radius                                   
   RWIGS  =    2.710; RWIGS  =    1.434    wigner-seitz radius (au A)           
   ENMAX  =  250.925; ENMIN  =  188.194 eV                                      
   ICORE  =        3    local potential                                         
   LCOR   =        T    correct aug charges                                     
   LPAW   =        T    paw PP                                                  
   EAUG   =  416.230                                                            
   DEXC   =    0.000                                                            
   RMAX   =    2.653    core radius for proj-oper                               
   RAUG   =    1.300    factor for augmentation sphere                          
   RDEP   =    2.734    radius for radial grids                                 
   RDEPT  =    2.103    core radius for aug-charge                              
                                                                                
   Atomic configuration                                                         
   12 entries                                                                   
     n  l   j            E        occ.                                          
     1  0  0.50    -24164.6631   2.0000                                         
     2  0  0.50     -3530.9218   2.0000                                         
     2  1  1.50     -3165.6822   6.0000                                         
     3  0  0.50      -639.4577   2.0000                                         
     3  1  1.50      -519.4532   6.0000                                         
     3  2  2.50      -328.9757  10.0000                                         
     4  0  0.50       -88.7014   2.0000                                         
     4  1  1.50       -54.4540   6.0000                                         
     4  2  2.50        -6.6878   9.0000                                         
     5  0  0.50        -4.3543   1.0000                                         
     5  1  0.50        -1.3606   0.0000                                         
     4  3  2.50        -1.3606   0.0000                                         
   Description                                                                  
     l       E           TYP  RCUT    TYP  RCUT                                 
     2     -6.6878251     23  2.400                                             
     2     -8.0484077     23  2.400                                             
     0     -4.3542939     23  2.400                                             
     0      4.3406793     23  2.400                                             
     1     -4.0817478     23  2.600                                             
     1     15.8380318     23  2.600                                             
     3     -4.0817478     23  2.400                                             
  local pseudopotential read in
  partial core-charges read in
  partial kinetic energy density read in
  atomic valenz-charges read in
  non local Contribution for L=           2  read in
    real space projection operators read in
  non local Contribution for L=           2  read in
    real space projection operators read in
  non local Contribution for L=           0  read in
    real space projection operators read in
  non local Contribution for L=           0  read in
    real space projection operators read in
  non local Contribution for L=           1  read in
    real space projection operators read in
  non local Contribution for L=           1  read in
    real space projection operators read in
    PAW grid and wavefunctions read in
 
   number of l-projection  operators is LMAX  =           6
   number of lm-projection operators is LMMAX =          18
 
 POTCAR:    PAW_PBE Au 04Oct2007                  
   VRHFIN =Au: s1d10                                                            
   LEXCH  = PE                                                                  
   EATOM  =   926.0867 eV,   68.0654 Ry                                         
                                                                                
   TITEL  = PAW_PBE Au 04Oct2007                                                
   LULTRA =        F    use ultrasoft PP ?                                      
   IUNSCR =        1    unscreen: 0-lin 1-nonlin 2-no                           
   RPACOR =    2.330    partial core radius                                     
   POMASS =  196.966; ZVAL   =   11.000    mass and valenz                      
   RCORE  =    2.500    outmost cutoff radius                                   
   RWIGS  =    2.840; RWIGS  =    1.503    wigner-seitz radius (au A)           
   ENMAX  =  229.943; ENMIN  =  172.457 eV                                      
   ICORE  =        3    local potential                                         
   LCOR   =        T    correct aug charges                                     
   LPAW   =        T    paw PP                                                  
   EAUG   =  356.670                                                            
   DEXC   =    0.000                                                            
   RMAX   =    2.562    core radius for proj-oper                               
   RAUG   =    1.300    factor for augmentation sphere                          
   RDEP   =    2.598    radius for radial grids                                 
   RDEPT  =    2.193    core radius for aug-charge                              
                                                                                
   Atomic configuration                                                         
   16 entries                                                                   
     n  l   j            E        occ.                                          
     1  0  0.50    -80748.5001   2.0000                                         
     2  0  0.50    -14244.7466   2.0000                                         
     2  1  1.50    -12310.9591   6.0000                                         
     3  0  0.50     -3362.1768   2.0000                                         
     3  1  1.50     -2801.5463   6.0000                                         
     3  2  2.50     -2203.8206  10.0000                                         
     4  0  0.50      -729.8168   2.0000                                         
     4  1  1.50      -546.0527   6.0000                                         
     4  2  2.50      -325.7302  10.0000                                         
     4  3  3.50       -81.1472  14.0000                                         
     5  0  0.50      -108.3201   2.0000                                         
     5  1  1.50       -59.7479   6.0000                                         
     5  2  2.50        -6.8783  10.0000                                         
     6  0  0.50        -5.7602   1.0000                                         
     6  1  1.50        -6.8029   0.0000                                         
     5  3  2.50        -1.3606   0.0000                                         
   Description                                                                  
     l       E           TYP  RCUT    TYP  RCUT                                 
     2     -6.8782861     23  2.500                                             
     2     -8.2388687     23  2.500                                             
     0     -5.7601759     23  2.500                                             
     0     -0.8493231     23  2.500                                             
     1     -2.7211652     23  2.500                                             
     1     27.2116520     23  2.500                                             
     3     -1.3605826     23  2.500                                             
  local pseudopotential read in
  partial core-charges read in
  partial kinetic energy density read in
  atomic valenz-charges read in
  non local Contribution for L=           2  read in
    real space projection operators read in
  non local Contribution for L=           2  read in
    real space projection operators read in
  non local Contribution for L=           0  read in
    real space projection operators read in
  non local Contribution for L=           0  read in
    real space projection operators read in
  non local Contribution for L=           1  read in
    real space projection operators read in
  non local Contribution for L=           1  read in
    real space projection operators read in
    PAW grid and wavefunctions read in
 
   number of l-projection  operators is LMAX  =           6
   number of lm-projection operators is LMMAX =          18
 
 POTCAR:    PAW_PBE O 08Apr2002                   
   VRHFIN =O: s2p4                                                              
   LEXCH  = PE                                                                  
   EATOM  =   432.3788 eV,   31.7789 Ry                                         
                                                                                
   TITEL  = PAW_PBE O 08Apr2002                                                 
   LULTRA =        F    use ultrasoft PP ?                                      
   IUNSCR =        1    unscreen: 0-lin 1-nonlin 2-no                           
   RPACOR =    1.200    partial core radius                                     
   POMASS =   16.000; ZVAL   =    6.000    mass and valenz                      
   RCORE  =    1.520    outmost cutoff radius                                   
   RWIGS  =    1.550; RWIGS  =    0.820    wigner-seitz radius (au A)           
   ENMAX  =  400.000; ENMIN  =  300.000 eV                                      
   ICORE  =        2    local potential                                         
   LCOR   =        T    correct aug charges                                     
   LPAW   =        T    paw PP                                                  
   EAUG   =  605.392                                                            
   DEXC   =    0.000                                                            
   RMAX   =    1.553    core radius for proj-oper                               
   RAUG   =    1.300    factor for augmentation sphere                          
   RDEP   =    1.550    radius for radial grids                                 
   RDEPT  =    1.329    core radius for aug-charge                              
                                                                                
   Atomic configuration                                                         
    4 entries                                                                   
     n  l   j            E        occ.                                          
     1  0  0.50      -514.6923   2.0000                                         
     2  0  0.50       -23.9615   2.0000                                         
     2  1  0.50        -9.0305   4.0000                                         
     3  2  1.50        -9.5241   0.0000                                         
   Description                                                                  
     l       E           TYP  RCUT    TYP  RCUT                                 
     0    -23.9615318     23  1.200                                             
     0     -9.5240782     23  1.200                                             
     1     -9.0304911     23  1.520                                             
     1      8.1634956     23  1.520                                             
     2     -9.5240782      7  1.500                                             
  local pseudopotential read in
  partial core-charges read in
  partial kinetic energy density read in
  kinetic energy density of atom read in
  atomic valenz-charges read in
  non local Contribution for L=           0  read in
    real space projection operators read in
  non local Contribution for L=           0  read in
    real space projection operators read in
  non local Contribution for L=           1  read in
    real space projection operators read in
  non local Contribution for L=           1  read in
    real space projection operators read in
    PAW grid and wavefunctions read in
 
   number of l-projection  operators is LMAX  =           4
   number of lm-projection operators is LMMAX =           8
 
 POTCAR:    PAW_PBE C 08Apr2002                   
   VRHFIN =C: s2p2                                                              
   LEXCH  = PE                                                                  
   EATOM  =   147.1560 eV,   10.8157 Ry                                         
                                                                                
   TITEL  = PAW_PBE C 08Apr2002                                                 
   LULTRA =        F    use ultrasoft PP ?                                      
   IUNSCR =        1    unscreen: 0-lin 1-nonlin 2-no                           
   RPACOR =    1.200    partial core radius                                     
   POMASS =   12.011; ZVAL   =    4.000    mass and valenz                      
   RCORE  =    1.500    outmost cutoff radius                                   
   RWIGS  =    1.630; RWIGS  =    0.863    wigner-seitz radius (au A)           
   ENMAX  =  400.000; ENMIN  =  300.000 eV                                      
   ICORE  =        2    local potential                                         
   LCOR   =        T    correct aug charges                                     
   LPAW   =        T    paw PP                                                  
   EAUG   =  644.873                                                            
   DEXC   =    0.000                                                            
   RMAX   =    1.529    core radius for proj-oper                               
   RAUG   =    1.300    factor for augmentation sphere                          
   RDEP   =    1.501    radius for radial grids                                 
   RDEPT  =    1.300    core radius for aug-charge                              
                                                                                
   Atomic configuration                                                         
    4 entries                                                                   
     n  l   j            E        occ.                                          
     1  0  0.50      -273.3789   2.0000                                         
     2  0  0.50       -13.7508   2.0000                                         
     2  1  0.50        -5.2854   2.0000                                         
     3  2  1.50        -5.4423   0.0000                                         
   Description                                                                  
     l       E           TYP  RCUT    TYP  RCUT                                 
     0    -13.7508458     23  1.200                                             
     0     -8.2022199     23  1.200                                             
     1     -5.2854383     23  1.500                                             
     1     34.0145650     23  1.500                                             
     2     -5.4423304      7  1.500                                             
  local pseudopotential read in
  partial core-charges read in
  partial kinetic energy density read in
  atomic valenz-charges read in
  non local Contribution for L=           0  read in
    real space projection operators read in
  non local Contribution for L=           0  read in
    real space projection operators read in
  non local Contribution for L=           1  read in
    real space projection operators read in
  non local Contribution for L=           1  read in
    real space projection operators read in
    PAW grid and wavefunctions read in
 
   number of l-projection  operators is LMAX  =           4
   number of lm-projection operators is LMMAX =           8
 

 ----------------------------------------------------------------------------- 
|                                                                             |
|  ADVICE TO THIS USER RUNNING 'VASP/VAMP'   (HEAR YOUR MASTER'S VOICE ...):  |
|                                                                             |
|      You enforced a specific xc-type in the INCAR file,                     |
|      a different type was found on the POTCAR file                          |
|          I HOPE YOU KNOW, WHAT YOU ARE  DOING                               |
|                                                                             |
 ----------------------------------------------------------------------------- 

  PAW_PBE Pd 04Jan2005                  :
 energy of atom  1       EATOM= -809.7530
 kinetic energy error for atom=    0.0051 (will be added to EATOM!!)
  PAW_PBE Au 04Oct2007                  :
 energy of atom  2       EATOM= -926.0867
 kinetic energy error for atom=    0.0057 (will be added to EATOM!!)
  PAW_PBE O 08Apr2002                   :
 energy of atom  3       EATOM= -432.3788
 kinetic energy error for atom=    0.0389 (will be added to EATOM!!)
  PAW_PBE C 08Apr2002                   :
 energy of atom  4       EATOM= -147.1560
 kinetic energy error for atom=    0.0116 (will be added to EATOM!!)
 
 
 POSCAR: Pd Au  O  C                             
  positions in cartesian coordinates
  No initial velocities read in
 exchange correlation table for  LEXCH =        9
   RHO(1)=    0.500       N(1)  =     2000
   RHO(2)=  100.500       N(2)  =     4000
 


--------------------------------------------------------------------------------------------------------


 ion  position               nearest neighbor table
   1  0.999  0.999  0.407-   5 2.84   6 2.84   4 2.85   7 2.90   8 2.90   2 2.90   2 2.90   8 2.90
                             7 2.90
   2  0.499  0.499  0.406-   3 2.82   6 2.83   5 2.83   7 2.89   8 2.89   1 2.90   1 2.90   8 2.90
                             7 2.90
   3  0.667  0.667  0.498-   2 2.82  11 2.87  12 2.87   7 2.88  10 2.88   8 2.88   6 2.89   5 2.89
                             4 2.90   4 2.90   5 2.91   6 2.91
   4  0.170  0.171  0.499-   6 2.84   5 2.85   1 2.85  12 2.85  11 2.85   8 2.89   7 2.89   3 2.90
                             3 2.90   5 2.95   6 2.95   9 3.00
   5  0.170  0.662  0.499-   2 2.83   1 2.84   6 2.85   4 2.85  10 2.85  12 2.85   3 2.89   3 2.91
                             8 2.91   4 2.95   6 2.95   9 2.99
   6  0.661  0.171  0.499-   2 2.83   1 2.84   4 2.84   5 2.85  10 2.85  11 2.85   3 2.89   3 2.91
                             7 2.91   5 2.95   4 2.95   9 2.99
   7  0.499  1.000  0.403-   3 2.88   4 2.89   2 2.89   1 2.90   8 2.90   8 2.90   1 2.90   2 2.90
                             6 2.91
   8  0.999  0.500  0.403-   3 2.88   4 2.89   2 2.89   1 2.90   7 2.90   7 2.90   1 2.90   2 2.90
                             5 2.91
   9  0.335  0.336  0.600-  14 2.04  11 2.90  10 2.90  12 2.90  10 2.90  12 2.90  11 2.90   5 2.99
                             6 2.99   4 3.00
  10  0.833  0.835  0.592-   6 2.85   5 2.85   3 2.88  12 2.89  11 2.89   9 2.90   9 2.90  11 2.91
                            12 2.91
  11  0.835  0.335  0.592-   4 2.85   6 2.85   3 2.87  10 2.89  12 2.89  12 2.90   9 2.90   9 2.90
                            10 2.91
  12  0.335  0.836  0.592-   4 2.85   5 2.85   3 2.87  10 2.89  11 2.89  11 2.90   9 2.90   9 2.90
                            10 2.91
  13  0.324  0.361  0.729-  14 1.16
  14  0.332  0.346  0.683-  13 1.16   9 2.04
 
  LATTYP: Found a hexagonal cell.
 ALAT       =     5.7950627388
 C/A-ratio  =     4.2677102953
  
  Lattice vectors:
  
 A1 = (   2.8975313694,  -5.0186715483,   0.0000000000)
 A2 = (  -5.7950627388,   0.0000000000,   0.0000000000)
 A3 = (   0.0000000000,   0.0000000000, -24.7316489125)


Analysis of symmetry for initial positions (statically):
=====================================================================
 Subroutine PRICEL returns:
 Original cell was already a primitive cell.
 

 Routine SETGRP: Setting up the symmetry group for a 
 hexagonal supercell.


 Subroutine GETGRP returns: Found  1 space group operations
 (whereof  1 operations were pure point group operations)
 out of a pool of 24 trial point group operations.


The static configuration has the point symmetry C_1 .


Analysis of symmetry for dynamics (positions and initial velocities):
=====================================================================
 Subroutine PRICEL returns:
 Original cell was already a primitive cell.
 

 Routine SETGRP: Setting up the symmetry group for a 
 hexagonal supercell.


 Subroutine GETGRP returns: Found  1 space group operations
 (whereof  1 operations were pure point group operations)
 out of a pool of 24 trial point group operations.


The dynamic configuration has the point symmetry C_1 .


 Subroutine INISYM returns: Found  1 space group operations
 (whereof  1 operations are pure point group operations),
 and found     1 'primitive' translations

 
 
 KPOINTS: KPOINTS created by Atomic Simulation Env

Automatic generation of k-mesh.
Space group operators:
 irot       det(A)        alpha          n_x          n_y          n_z        tau_x        tau_y        tau_z
    1     1.000000     0.000000     1.000000     0.000000     0.000000     0.000000     0.000000     0.000000
 
 Subroutine IBZKPT returns following result:
 ===========================================
 
 Found     96 irreducible k-points:
 
 Following reciprocal coordinates:
            Coordinates               Weight
  0.062500  0.062500  0.000000     16.000000
  0.000000  0.062500  0.000000     16.000000
 -0.062500  0.000000  0.000000     16.000000
  0.187500  0.062500  0.000000     16.000000
  0.125000  0.187500  0.000000     16.000000
 -0.062500  0.125000  0.000000     16.000000
  0.125000 -0.062500  0.000000     16.000000
 -0.062500 -0.187500  0.000000     16.000000
 -0.187500 -0.125000  0.000000     16.000000
  0.312500  0.062500  0.000000     16.000000
  0.250000  0.312500  0.000000     16.000000
 -0.062500  0.250000  0.000000     16.000000
  0.250000 -0.062500  0.000000     16.000000
 -0.062500 -0.312500  0.000000     16.000000
 -0.312500 -0.250000  0.000000     16.000000
  0.437500  0.062500  0.000000     16.000000
  0.375000  0.437500  0.000000     16.000000
 -0.062500  0.375000  0.000000     16.000000
  0.375000 -0.062500  0.000000     16.000000
 -0.062500 -0.437500  0.000000     16.000000
 -0.437500 -0.375000  0.000000     16.000000
 -0.437500  0.062500  0.000000     16.000000
  0.500000 -0.437500  0.000000     16.000000
 -0.062500  0.500000  0.000000     16.000000
  0.500000 -0.062500  0.000000     16.000000
 -0.062500  0.437500  0.000000     16.000000
  0.437500  0.500000  0.000000     16.000000
 -0.312500  0.062500  0.000000     16.000000
 -0.375000 -0.312500  0.000000     16.000000
 -0.062500 -0.375000  0.000000     16.000000
 -0.375000 -0.062500  0.000000     16.000000
 -0.062500  0.312500  0.000000     16.000000
  0.312500  0.375000  0.000000     16.000000
 -0.187500  0.062500  0.000000     16.000000
 -0.250000 -0.187500  0.000000     16.000000
 -0.062500 -0.250000  0.000000     16.000000
 -0.250000 -0.062500  0.000000     16.000000
 -0.062500  0.187500  0.000000     16.000000
  0.187500  0.250000  0.000000     16.000000
 -0.062500  0.062500  0.000000     16.000000
 -0.125000 -0.062500  0.000000     16.000000
 -0.062500 -0.125000  0.000000     16.000000
  0.187500  0.187500  0.000000     16.000000
  0.000000  0.187500  0.000000     16.000000
 -0.187500  0.000000  0.000000     16.000000
  0.312500  0.187500  0.000000     16.000000
  0.125000  0.312500  0.000000     16.000000
 -0.187500  0.125000  0.000000     16.000000
  0.125000 -0.187500  0.000000     16.000000
 -0.187500 -0.312500  0.000000     16.000000
 -0.312500 -0.125000  0.000000     16.000000
  0.437500  0.187500  0.000000     16.000000
  0.250000  0.437500  0.000000     16.000000
 -0.187500  0.250000  0.000000     16.000000
  0.250000 -0.187500  0.000000     16.000000
 -0.187500 -0.437500  0.000000     16.000000
 -0.437500 -0.250000  0.000000     16.000000
 -0.437500  0.187500  0.000000     16.000000
  0.375000 -0.437500  0.000000     16.000000
 -0.187500  0.375000  0.000000     16.000000
  0.375000 -0.187500  0.000000     16.000000
 -0.187500  0.437500  0.000000     16.000000
  0.437500 -0.375000  0.000000     16.000000
 -0.312500  0.187500  0.000000     16.000000
  0.500000 -0.312500  0.000000     16.000000
 -0.187500  0.500000  0.000000     16.000000
  0.500000 -0.187500  0.000000     16.000000
 -0.187500  0.312500  0.000000     16.000000
  0.312500  0.500000  0.000000     16.000000
 -0.187500  0.187500  0.000000     16.000000
 -0.375000 -0.187500  0.000000     16.000000
 -0.187500 -0.375000  0.000000     16.000000
  0.312500  0.312500  0.000000     16.000000
  0.000000  0.312500  0.000000     16.000000
 -0.312500  0.000000  0.000000     16.000000
  0.437500  0.312500  0.000000     16.000000
  0.125000  0.437500  0.000000     16.000000
 -0.312500  0.125000  0.000000     16.000000
  0.125000 -0.312500  0.000000     16.000000
 -0.312500 -0.437500  0.000000     16.000000
 -0.437500 -0.125000  0.000000     16.000000
 -0.437500  0.312500  0.000000     16.000000
  0.250000 -0.437500  0.000000     16.000000
 -0.312500  0.250000  0.000000     16.000000
  0.250000 -0.312500  0.000000     16.000000
 -0.312500  0.437500  0.000000     16.000000
  0.437500 -0.250000  0.000000     16.000000
 -0.312500  0.312500  0.000000     16.000000
  0.375000 -0.312500  0.000000     16.000000
 -0.312500  0.375000  0.000000     16.000000
  0.437500  0.437500  0.000000     16.000000
  0.000000  0.437500  0.000000     16.000000
 -0.437500  0.000000  0.000000     16.000000
 -0.437500  0.437500  0.000000     16.000000
  0.125000 -0.437500  0.000000     16.000000
 -0.437500  0.125000  0.000000     16.000000
 
 Following cartesian coordinates:
            Coordinates               Weight
  0.010785  0.006227  0.000000     16.000000
  0.000000  0.012453  0.000000     16.000000
 -0.010785  0.006227  0.000000     16.000000
  0.032355 -0.006227  0.000000     16.000000
  0.021570  0.024907  0.000000     16.000000
 -0.010785  0.031134  0.000000     16.000000
  0.021570 -0.024907  0.000000     16.000000
 -0.010785 -0.031134  0.000000     16.000000
 -0.032355 -0.006227  0.000000     16.000000
  0.053925 -0.018680  0.000000     16.000000
  0.043140  0.037360  0.000000     16.000000
 -0.010785  0.056041  0.000000     16.000000
  0.043140 -0.037360  0.000000     16.000000
 -0.010785 -0.056041  0.000000     16.000000
 -0.053925 -0.018680  0.000000     16.000000
  0.075495 -0.031134  0.000000     16.000000
  0.064710  0.049814  0.000000     16.000000
 -0.010785  0.080948  0.000000     16.000000
  0.064710 -0.049814  0.000000     16.000000
 -0.010785 -0.080948  0.000000     16.000000
 -0.075495 -0.031134  0.000000     16.000000
 -0.075495  0.056041  0.000000     16.000000
  0.086280 -0.136988  0.000000     16.000000
 -0.010785  0.105855  0.000000     16.000000
  0.086280 -0.062267  0.000000     16.000000
 -0.010785  0.093401  0.000000     16.000000
  0.075495  0.056041  0.000000     16.000000
 -0.053925  0.043587  0.000000     16.000000
 -0.064710 -0.024907  0.000000     16.000000
 -0.010785 -0.068494  0.000000     16.000000
 -0.064710  0.024907  0.000000     16.000000
 -0.010785  0.068494  0.000000     16.000000
  0.053925  0.043587  0.000000     16.000000
 -0.032355  0.031134  0.000000     16.000000
 -0.043140 -0.012453  0.000000     16.000000
 -0.010785 -0.043587  0.000000     16.000000
 -0.043140  0.012453  0.000000     16.000000
 -0.010785  0.043587  0.000000     16.000000
  0.032355  0.031134  0.000000     16.000000
 -0.010785  0.018680  0.000000     16.000000
 -0.021570 -0.000000  0.000000     16.000000
 -0.010785 -0.018680  0.000000     16.000000
  0.032355  0.018680  0.000000     16.000000
  0.000000  0.037360  0.000000     16.000000
 -0.032355  0.018680  0.000000     16.000000
  0.053925  0.006227  0.000000     16.000000
  0.021570  0.049814  0.000000     16.000000
 -0.032355  0.043587  0.000000     16.000000
  0.021570 -0.049814  0.000000     16.000000
 -0.032355 -0.043587  0.000000     16.000000
 -0.053925  0.006227  0.000000     16.000000
  0.075495 -0.006227  0.000000     16.000000
  0.043140  0.062267  0.000000     16.000000
 -0.032355  0.068494  0.000000     16.000000
  0.043140 -0.062267  0.000000     16.000000
 -0.032355 -0.068494  0.000000     16.000000
 -0.075495 -0.006227  0.000000     16.000000
 -0.075495  0.080948  0.000000     16.000000
  0.064710 -0.124535  0.000000     16.000000
 -0.032355  0.093401  0.000000     16.000000
  0.064710 -0.074721  0.000000     16.000000
 -0.032355  0.105855  0.000000     16.000000
  0.075495 -0.118308  0.000000     16.000000
 -0.053925  0.068494  0.000000     16.000000
  0.086280 -0.112081  0.000000     16.000000
 -0.032355  0.118308  0.000000     16.000000
  0.086280 -0.087174  0.000000     16.000000
 -0.032355  0.080948  0.000000     16.000000
  0.053925  0.068494  0.000000     16.000000
 -0.032355  0.056041  0.000000     16.000000
 -0.064710  0.000000  0.000000     16.000000
 -0.032355 -0.056041  0.000000     16.000000
  0.053925  0.031134  0.000000     16.000000
  0.000000  0.062267  0.000000     16.000000
 -0.053925  0.031134  0.000000     16.000000
  0.075495  0.018680  0.000000     16.000000
  0.021570  0.074721  0.000000     16.000000
 -0.053925  0.056041  0.000000     16.000000
  0.021570 -0.074721  0.000000     16.000000
 -0.053925 -0.056041  0.000000     16.000000
 -0.075495  0.018680  0.000000     16.000000
 -0.075495  0.105855  0.000000     16.000000
  0.043140 -0.112081  0.000000     16.000000
 -0.053925  0.080948  0.000000     16.000000
  0.043140 -0.087174  0.000000     16.000000
 -0.053925  0.118308  0.000000     16.000000
  0.075495 -0.093401  0.000000     16.000000
 -0.053925  0.093401  0.000000     16.000000
  0.064710 -0.099628  0.000000     16.000000
 -0.053925  0.105855  0.000000     16.000000
  0.075495  0.043587  0.000000     16.000000
  0.000000  0.087174  0.000000     16.000000
 -0.075495  0.043587  0.000000     16.000000
 -0.075495  0.130762  0.000000     16.000000
  0.021570 -0.099628  0.000000     16.000000
 -0.075495  0.068494  0.000000     16.000000
 


--------------------------------------------------------------------------------------------------------




 Dimension of arrays:
   k-points           NKPTS =     96   k-points in BZ     NKDIM =     96   number of bands    NBANDS=     84
   number of dos      NEDOS =    301   number of ions     NIONS =     14
   non local maximal  LDIM  =      6   non local SUM 2l+1 LMDIM =     18
   total plane-waves  NPLWV = 288000
   max r-space proj   IRMAX =      1   max aug-charges    IRDMAX=  24682
   dimension x,y,z NGX =    40 NGY =   40 NGZ =  180
   dimension x,y,z NGXF=    80 NGYF=   80 NGZF=  360
   support grid    NGXF=    80 NGYF=   80 NGZF=  360
   ions per type =               6   6   1   1
   NGX,Y,Z   is equivalent  to a cutoff of  11.48, 11.48, 12.10 a.u.
   NGXF,Y,Z  is equivalent  to a cutoff of  22.95, 22.95, 24.20 a.u.

 SYSTEM =  out                                     
 POSCAR =  Pd Au  O  C                             

 Startparameter for this run:
   NWRITE =      2    write-flag & timer
   PREC   = accura    normal or accurate (medium, high low for compatibility)
   ISTART =      1    job   : 0-new  1-cont  2-samecut
   ICHARG =      0    charge: 1-file 2-atom 10-const
   ISPIN  =      1    spin polarized calculation?
   LNONCOLLINEAR =      F non collinear calculations
   LSORBIT =      F    spin-orbit coupling
   INIWAV =      1    electr: 0-lowe 1-rand  2-diag
   LASPH  =      F    aspherical Exc in radial PAW
   METAGGA=      F    non-selfconsistent MetaGGA calc.

 Electronic Relaxation 1
   ENCUT  =  450.0 eV  33.07 Ry    5.75 a.u.  10.02 10.02 42.78*2*pi/ulx,y,z
   ENINI  =  450.0     initial cutoff
   ENAUG  =  644.9 eV  augmentation charge cutoff
   NELM   =    200;   NELMIN=  2; NELMDL=  0     # of ELM steps 
   EDIFF  = 0.1E-03   stopping-criterion for ELM
   LREAL  =      F    real-space projection
   NLSPLINE    = F    spline interpolate recip. space projectors
   LCOMPAT=      F    compatible to vasp.4.4
   GGA_COMPAT  = T    GGA compatible to vasp.4.4-vasp.4.6
   LMAXPAW     = -100 max onsite density
   LMAXMIX     =    2 max onsite mixed and CHGCAR
   VOSKOWN=      0    Vosko Wilk Nusair interpolation
   ROPT   =    0.00000   0.00000   0.00000   0.00000
 Ionic relaxation
   EDIFFG = 0.1E-02   stopping-criterion for IOM
   NSW    =      0    number of steps for IOM
   NBLOCK =      1;   KBLOCK =      1    inner block; outer block 
   IBRION =     -1    ionic relax: 0-MD 1-quasi-New 2-CG
   NFREE  =      0    steps in history (QN), initial steepest desc. (CG)
   ISIF   =      2    stress and relaxation
   IWAVPR =     10    prediction:  0-non 1-charg 2-wave 3-comb
   ISYM   =      2    0-nonsym 1-usesym 2-fastsym
   LCORR  =      T    Harris-Foulkes like correction to forces

   POTIM  = 0.5000    time-step for ionic-motion
   TEIN   =    0.0    initial temperature
   TEBEG  =    0.0;   TEEND  =   0.0 temperature during run
   SMASS  =  -3.00    Nose mass-parameter (am)
   estimated Nose-frequenzy (Omega)   =  0.10E-29 period in steps =****** mass=  -0.767E-27a.u.
   SCALEE = 1.0000    scale energy and forces
   NPACO  =    256;   APACO  = 16.0  distance and # of slots for P.C.
   PSTRESS=    0.0 pullay stress

  Mass of Ions in am
   POMASS = 106.42196.97 16.00 12.01
  Ionic Valenz
   ZVAL   =  10.00 11.00  6.00  4.00
  Atomic Wigner-Seitz radii
   RWIGS  =  -1.00 -1.00 -1.00 -1.00
  virtual crystal weights 
   VCA    =   1.00  1.00  1.00  1.00
   NELECT =     136.0000    total number of electrons
   NUPDOWN=      -1.0000    fix difference up-down

 DOS related values:
   EMIN   =  10.00;   EMAX   =-10.00  energy-range for DOS
   EFERMI =   0.00
   ISMEAR =     0;   SIGMA  =   0.05  broadening in eV -4-tet -1-fermi 0-gaus

 Electronic relaxation 2 (details)
   IALGO  =     68    algorithm
   LDIAG  =      T    sub-space diagonalisation (order eigenvalues)
   LSUBROT=      F    optimize rotation matrix (better conditioning)
   TURBO    =      0    0=normal 1=particle mesh
   IRESTART =      0    0=no restart 2=restart with 2 vectors
   NREBOOT  =      0    no. of reboots
   NMIN     =      0    reboot dimension
   EREF     =   0.00    reference energy to select bands
   IMIX   =      4    mixing-type and parameters
     AMIX     =   0.40;   BMIX     =  1.00
     AMIX_MAG =   1.60;   BMIX_MAG =  1.00
     AMIN     =   0.10
     WC   =   100.;   INIMIX=   1;  MIXPRE=   1;  MAXMIX= -45

 Intra band minimization:
   WEIMIN = 0.0000     energy-eigenvalue tresh-hold
   EBREAK =  0.30E-06  absolut break condition
   DEPER  =   0.30     relativ break condition  

   TIME   =   0.40     timestep for ELM

  volume/ion in A,a.u.               =      51.38       346.71
  Fermi-wavevector in a.u.,A,eV,Ry     =   0.939625  1.775633 12.012513  0.882895
  Thomas-Fermi vector in A             =   2.066956
 
 Write flags
   LWAVE        =      T    write WAVECAR
   LDOWNSAMPLE  =      F    k-point downsampling of WAVECAR
   LCHARG       =      T    write CHGCAR
   LVTOT        =      F    write LOCPOT, total local potential
   LVHAR        =      F    write LOCPOT, Hartree potential only
   LELF         =      F    write electronic localiz. function (ELF)
   LORBIT       =      0    0 simple, 1 ext, 2 COOP (PROOUT), +10 PAW based schemes


 Dipole corrections
   LMONO  =      F    monopole corrections only (constant potential shift)
   LDIPOL =      F    correct potential (dipole corrections)
   IDIPOL =      0    1-x, 2-y, 3-z, 4-all directions 
   EPSILON=  1.0000000 bulk dielectric constant

 Exchange correlation treatment:
   GGA     =    RP    GGA type
   LEXCH   =     9    internal setting for exchange type
   VOSKOWN=      0    Vosko Wilk Nusair interpolation
   LHFCALC =     F    Hartree Fock is set to
   LHFONE  =     F    Hartree Fock one center treatment
   AEXX    =    0.0000 exact exchange contribution

 Linear response parameters
   LEPSILON=     F    determine dielectric tensor
   LRPA    =     F    only Hartree local field effects (RPA)
   LNABLA  =     F    use nabla operator in PAW spheres
   LVEL    =     F    velocity operator in full k-point grid
   LINTERFAST=   F  fast interpolation
   KINTER  =     0    interpolate to denser k-point grid
   CSHIFT  =0.1000    complex shift for real part using Kramers Kronig
   OMEGAMAX=  -1.0    maximum frequency
   DEG_THRESHOLD= 0.2000000E-02 threshold for treating states as degnerate
   RTIME   =   -0.100 relaxation time in fs
  (WPLASMAI=    0.000 imaginary part of plasma frequency in eV, 0.658/RTIME)
   DFIELD  = 0.0000000 0.0000000 0.0000000 field for delta impulse in time
 
 Orbital magnetization related:
   ORBITALMAG=     F  switch on orbital magnetization
   LCHIMAG   =     F  perturbation theory with respect to B field
   DQ        =  0.001000  dq finite difference perturbation B field
   LLRAUG    =     F  two centre corrections for induced B field



--------------------------------------------------------------------------------------------------------


 Static calculation
 charge density and potential will be updated during run
 non-spin polarized calculation
 RMM-DIIS sequential band-by-band and
  variant of blocked Davidson during initial phase
 perform sub-space diagonalisation
    before iterative eigenvector-optimisation
 modified Broyden-mixing scheme, WC =      100.0
 initial mixing is a Kerker type mixing with AMIX =  0.4000 and BMIX =      1.0000
 Hartree-type preconditioning will be used
 using additional bands           16
 reciprocal scheme for non local part
 use partial core corrections
 calculate Harris-corrections to forces 
   (improved forces if not selfconsistent)
 use gradient corrections 
 use of overlap-Matrix (Vanderbilt PP)
 Gauss-broadening in eV      SIGMA  =   0.05


--------------------------------------------------------------------------------------------------------


  energy-cutoff  :      450.00
  volume of cell :      719.28
      direct lattice vectors                 reciprocal lattice vectors
     5.795062739  0.000000000  0.000000000     0.172560686 -0.099627958  0.000000000
     2.897531369  5.018671548  0.000000000     0.000000000  0.199255917  0.000000000
     0.000000000  0.000000000 24.731648912     0.000000000  0.000000000  0.040434021

  length of vectors
     5.795062739  5.795062739 24.731648912     0.199255917  0.199255917  0.040434021


 
 old parameters found on file WAVECAR:
  energy-cutoff  :      450.00
  volume of cell :      719.28
      direct lattice vectors                 reciprocal lattice vectors
     5.795062739  0.000000000  0.000000000     0.172560686 -0.099627958  0.000000000
     2.897531369  5.018671548  0.000000000     0.000000000  0.199255917  0.000000000
     0.000000000  0.000000000 24.731648912     0.000000000  0.000000000  0.040434021

  length of vectors

 
 k-points in units of 2pi/SCALE and weight: KPOINTS created by Atomic Simulation Env
   0.01078504  0.00622675  0.00000000       0.010
   0.00000000  0.01245349  0.00000000       0.010
  -0.01078504  0.00622675  0.00000000       0.010
   0.03235513 -0.00622675  0.00000000       0.010
   0.02157009  0.02490699  0.00000000       0.010
  -0.01078504  0.03113374  0.00000000       0.010
   0.02157009 -0.02490699  0.00000000       0.010
  -0.01078504 -0.03113374  0.00000000       0.010
  -0.03235513 -0.00622675  0.00000000       0.010
   0.05392521 -0.01868024  0.00000000       0.010
   0.04314017  0.03736048  0.00000000       0.010
  -0.01078504  0.05604073  0.00000000       0.010
   0.04314017 -0.03736048  0.00000000       0.010
  -0.01078504 -0.05604073  0.00000000       0.010
  -0.05392521 -0.01868024  0.00000000       0.010
   0.07549530 -0.03113374  0.00000000       0.010
   0.06471026  0.04981398  0.00000000       0.010
  -0.01078504  0.08094772  0.00000000       0.010
   0.06471026 -0.04981398  0.00000000       0.010
  -0.01078504 -0.08094772  0.00000000       0.010
  -0.07549530 -0.03113374  0.00000000       0.010
  -0.07549530  0.05604073  0.00000000       0.010
   0.08628034 -0.13698844  0.00000000       0.010
  -0.01078504  0.10585471  0.00000000       0.010
   0.08628034 -0.06226747  0.00000000       0.010
  -0.01078504  0.09340121  0.00000000       0.010
   0.07549530  0.05604073  0.00000000       0.010
  -0.05392521  0.04358723  0.00000000       0.010
  -0.06471026 -0.02490699  0.00000000       0.010
  -0.01078504 -0.06849422  0.00000000       0.010
  -0.06471026  0.02490699  0.00000000       0.010
  -0.01078504  0.06849422  0.00000000       0.010
   0.05392521  0.04358723  0.00000000       0.010
  -0.03235513  0.03113374  0.00000000       0.010
  -0.04314017 -0.01245349  0.00000000       0.010
  -0.01078504 -0.04358723  0.00000000       0.010
  -0.04314017  0.01245349  0.00000000       0.010
  -0.01078504  0.04358723  0.00000000       0.010
   0.03235513  0.03113374  0.00000000       0.010
  -0.01078504  0.01868024  0.00000000       0.010
  -0.02157009 -0.00000000  0.00000000       0.010
  -0.01078504 -0.01868024  0.00000000       0.010
   0.03235513  0.01868024  0.00000000       0.010
   0.00000000  0.03736048  0.00000000       0.010
  -0.03235513  0.01868024  0.00000000       0.010
   0.05392521  0.00622675  0.00000000       0.010
   0.02157009  0.04981398  0.00000000       0.010
  -0.03235513  0.04358723  0.00000000       0.010
   0.02157009 -0.04981398  0.00000000       0.010
  -0.03235513 -0.04358723  0.00000000       0.010
  -0.05392521  0.00622675  0.00000000       0.010
   0.07549530 -0.00622675  0.00000000       0.010
   0.04314017  0.06226747  0.00000000       0.010
  -0.03235513  0.06849422  0.00000000       0.010
   0.04314017 -0.06226747  0.00000000       0.010
  -0.03235513 -0.06849422  0.00000000       0.010
  -0.07549530 -0.00622675  0.00000000       0.010
  -0.07549530  0.08094772  0.00000000       0.010
   0.06471026 -0.12453495  0.00000000       0.010
  -0.03235513  0.09340121  0.00000000       0.010
   0.06471026 -0.07472097  0.00000000       0.010
  -0.03235513  0.10585471  0.00000000       0.010
   0.07549530 -0.11830820  0.00000000       0.010
  -0.05392521  0.06849422  0.00000000       0.010
   0.08628034 -0.11208145  0.00000000       0.010
  -0.03235513  0.11830820  0.00000000       0.010
   0.08628034 -0.08717446  0.00000000       0.010
  -0.03235513  0.08094772  0.00000000       0.010
   0.05392521  0.06849422  0.00000000       0.010
  -0.03235513  0.05604073  0.00000000       0.010
  -0.06471026  0.00000000  0.00000000       0.010
  -0.03235513 -0.05604073  0.00000000       0.010
   0.05392521  0.03113374  0.00000000       0.010
   0.00000000  0.06226747  0.00000000       0.010
  -0.05392521  0.03113374  0.00000000       0.010
   0.07549530  0.01868024  0.00000000       0.010
   0.02157009  0.07472097  0.00000000       0.010
  -0.05392521  0.05604073  0.00000000       0.010
   0.02157009 -0.07472097  0.00000000       0.010
  -0.05392521 -0.05604073  0.00000000       0.010
  -0.07549530  0.01868024  0.00000000       0.010
  -0.07549530  0.10585471  0.00000000       0.010
   0.04314017 -0.11208145  0.00000000       0.010
  -0.05392521  0.08094772  0.00000000       0.010
   0.04314017 -0.08717446  0.00000000       0.010
  -0.05392521  0.11830820  0.00000000       0.010
   0.07549530 -0.09340121  0.00000000       0.010
  -0.05392521  0.09340121  0.00000000       0.010
   0.06471026 -0.09962796  0.00000000       0.010
  -0.05392521  0.10585471  0.00000000       0.010
   0.07549530  0.04358723  0.00000000       0.010
   0.00000000  0.08717446  0.00000000       0.010
  -0.07549530  0.04358723  0.00000000       0.010
  -0.07549530  0.13076170  0.00000000       0.010
   0.02157009 -0.09962796  0.00000000       0.010
  -0.07549530  0.06849422  0.00000000       0.010
 
 k-points in reciprocal lattice and weights: KPOINTS created by Atomic Simulation Env
   0.06250000  0.06250000  0.00000000       0.010
   0.00000000  0.06250000  0.00000000       0.010
  -0.06250000  0.00000000  0.00000000       0.010
   0.18750000  0.06250000  0.00000000       0.010
   0.12500000  0.18750000  0.00000000       0.010
  -0.06250000  0.12500000  0.00000000       0.010
   0.12500000 -0.06250000  0.00000000       0.010
  -0.06250000 -0.18750000  0.00000000       0.010
  -0.18750000 -0.12500000  0.00000000       0.010
   0.31250000  0.06250000  0.00000000       0.010
   0.25000000  0.31250000  0.00000000       0.010
  -0.06250000  0.25000000  0.00000000       0.010
   0.25000000 -0.06250000  0.00000000       0.010
  -0.06250000 -0.31250000  0.00000000       0.010
  -0.31250000 -0.25000000  0.00000000       0.010
   0.43750000  0.06250000  0.00000000       0.010
   0.37500000  0.43750000  0.00000000       0.010
  -0.06250000  0.37500000  0.00000000       0.010
   0.37500000 -0.06250000  0.00000000       0.010
  -0.06250000 -0.43750000  0.00000000       0.010
  -0.43750000 -0.37500000  0.00000000       0.010
  -0.43750000  0.06250000  0.00000000       0.010
   0.50000000 -0.43750000  0.00000000       0.010
  -0.06250000  0.50000000  0.00000000       0.010
   0.50000000 -0.06250000  0.00000000       0.010
  -0.06250000  0.43750000  0.00000000       0.010
   0.43750000  0.50000000  0.00000000       0.010
  -0.31250000  0.06250000  0.00000000       0.010
  -0.37500000 -0.31250000  0.00000000       0.010
  -0.06250000 -0.37500000  0.00000000       0.010
  -0.37500000 -0.06250000  0.00000000       0.010
  -0.06250000  0.31250000  0.00000000       0.010
   0.31250000  0.37500000  0.00000000       0.010
  -0.18750000  0.06250000  0.00000000       0.010
  -0.25000000 -0.18750000  0.00000000       0.010
  -0.06250000 -0.25000000  0.00000000       0.010
  -0.25000000 -0.06250000  0.00000000       0.010
  -0.06250000  0.18750000  0.00000000       0.010
   0.18750000  0.25000000  0.00000000       0.010
  -0.06250000  0.06250000  0.00000000       0.010
  -0.12500000 -0.06250000  0.00000000       0.010
  -0.06250000 -0.12500000  0.00000000       0.010
   0.18750000  0.18750000  0.00000000       0.010
   0.00000000  0.18750000  0.00000000       0.010
  -0.18750000  0.00000000  0.00000000       0.010
   0.31250000  0.18750000  0.00000000       0.010
   0.12500000  0.31250000  0.00000000       0.010
  -0.18750000  0.12500000  0.00000000       0.010
   0.12500000 -0.18750000  0.00000000       0.010
  -0.18750000 -0.31250000  0.00000000       0.010
  -0.31250000 -0.12500000  0.00000000       0.010
   0.43750000  0.18750000  0.00000000       0.010
   0.25000000  0.43750000  0.00000000       0.010
  -0.18750000  0.25000000  0.00000000       0.010
   0.25000000 -0.18750000  0.00000000       0.010
  -0.18750000 -0.43750000  0.00000000       0.010
  -0.43750000 -0.25000000  0.00000000       0.010
  -0.43750000  0.18750000  0.00000000       0.010
   0.37500000 -0.43750000  0.00000000       0.010
  -0.18750000  0.37500000  0.00000000       0.010
   0.37500000 -0.18750000  0.00000000       0.010
  -0.18750000  0.43750000  0.00000000       0.010
   0.43750000 -0.37500000  0.00000000       0.010
  -0.31250000  0.18750000  0.00000000       0.010
   0.50000000 -0.31250000  0.00000000       0.010
  -0.18750000  0.50000000  0.00000000       0.010
   0.50000000 -0.18750000  0.00000000       0.010
  -0.18750000  0.31250000  0.00000000       0.010
   0.31250000  0.50000000  0.00000000       0.010
  -0.18750000  0.18750000  0.00000000       0.010
  -0.37500000 -0.18750000  0.00000000       0.010
  -0.18750000 -0.37500000  0.00000000       0.010
   0.31250000  0.31250000  0.00000000       0.010
   0.00000000  0.31250000  0.00000000       0.010
  -0.31250000  0.00000000  0.00000000       0.010
   0.43750000  0.31250000  0.00000000       0.010
   0.12500000  0.43750000  0.00000000       0.010
  -0.31250000  0.12500000  0.00000000       0.010
   0.12500000 -0.31250000  0.00000000       0.010
  -0.31250000 -0.43750000  0.00000000       0.010
  -0.43750000 -0.12500000  0.00000000       0.010
  -0.43750000  0.31250000  0.00000000       0.010
   0.25000000 -0.43750000  0.00000000       0.010
  -0.31250000  0.25000000  0.00000000       0.010
   0.25000000 -0.31250000  0.00000000       0.010
  -0.31250000  0.43750000  0.00000000       0.010
   0.43750000 -0.25000000  0.00000000       0.010
  -0.31250000  0.31250000  0.00000000       0.010
   0.37500000 -0.31250000  0.00000000       0.010
  -0.31250000  0.37500000  0.00000000       0.010
   0.43750000  0.43750000  0.00000000       0.010
   0.00000000  0.43750000  0.00000000       0.010
  -0.43750000  0.00000000  0.00000000       0.010
  -0.43750000  0.43750000  0.00000000       0.010
   0.12500000 -0.43750000  0.00000000       0.010
  -0.43750000  0.12500000  0.00000000       0.010
 
 position of ions in fractional coordinates (direct lattice) 
   0.99890812  0.99923771  0.40728091
   0.49873831  0.49899998  0.40618397
   0.66654299  0.66708034  0.49763465
   0.17040285  0.17095410  0.49886833
   0.17032981  0.66200941  0.49928164
   0.66129943  0.17096849  0.49931970
   0.49926590  0.99962851  0.40293994
   0.99930131  0.49953913  0.40292434
   0.33490258  0.33596122  0.60023293
   0.83349671  0.83454859  0.59206546
   0.83517339  0.33547329  0.59199564
   0.33476486  0.83604863  0.59198696
   0.32398858  0.36109052  0.72949448
   0.33233263  0.34578133  0.68285157
 
 position of ions in cartesian coordinates  (Angst):
   8.68405786  5.01484589 10.07272859
   4.33608792  2.50431702 10.04559944
   5.79554466  3.34785714 12.30732545
   1.48284007  0.85796249 12.33783647
   2.90526494  3.32240778 12.34805817
   4.32765826  0.85803470 12.34899957
   5.78973219  5.01680718  9.96536922
   7.23844410  2.50702280  9.96498326
   2.91423965  1.68607902 14.84475005
   7.24829644  4.18832529 14.64275498
   5.81192660  1.68363026 14.64102827
   4.36246047  4.19585346 14.64081357
   2.92380528  1.81219472 18.04160135
   2.92780071  1.73536293 16.88804538
 


--------------------------------------------------------------------------------------------------------


 k-point  1 :   0.0625 0.0625 0.0000  plane waves:   15521
 k-point  2 :   0.0000 0.0625 0.0000  plane waves:   15521
 k-point  3 :  -0.0625 0.0000 0.0000  plane waves:   15521
 k-point  4 :   0.1875 0.0625 0.0000  plane waves:   15547
 k-point  5 :   0.1250 0.1875 0.0000  plane waves:   15547
 k-point  6 :  -0.0625 0.1250 0.0000  plane waves:   15547
 k-point  7 :   0.1250-0.0625 0.0000  plane waves:   15547
 k-point  8 :  -0.0625-0.1875 0.0000  plane waves:   15547
 k-point  9 :  -0.1875-0.1250 0.0000  plane waves:   15547
 k-point 10 :   0.3125 0.0625 0.0000  plane waves:   15568
 k-point 11 :   0.2500 0.3125 0.0000  plane waves:   15568
 k-point 12 :  -0.0625 0.2500 0.0000  plane waves:   15568
 k-point 13 :   0.2500-0.0625 0.0000  plane waves:   15568
 k-point 14 :  -0.0625-0.3125 0.0000  plane waves:   15568
 k-point 15 :  -0.3125-0.2500 0.0000  plane waves:   15568
 k-point 16 :   0.4375 0.0625 0.0000  plane waves:   15609
 k-point 17 :   0.3750 0.4375 0.0000  plane waves:   15609
 k-point 18 :  -0.0625 0.3750 0.0000  plane waves:   15609
 k-point 19 :   0.3750-0.0625 0.0000  plane waves:   15609
 k-point 20 :  -0.0625-0.4375 0.0000  plane waves:   15609
 k-point 21 :  -0.4375-0.3750 0.0000  plane waves:   15609
 k-point 22 :  -0.4375 0.0625 0.0000  plane waves:   15598
 k-point 23 :   0.5000-0.4375 0.0000  plane waves:   15598
 k-point 24 :  -0.0625 0.5000 0.0000  plane waves:   15598
 k-point 25 :   0.5000-0.0625 0.0000  plane waves:   15598
 k-point 26 :  -0.0625 0.4375 0.0000  plane waves:   15598
 k-point 27 :   0.4375 0.5000 0.0000  plane waves:   15598
 k-point 28 :  -0.3125 0.0625 0.0000  plane waves:   15595
 k-point 29 :  -0.3750-0.3125 0.0000  plane waves:   15595
 k-point 30 :  -0.0625-0.3750 0.0000  plane waves:   15595
 k-point 31 :  -0.3750-0.0625 0.0000  plane waves:   15595
 k-point 32 :  -0.0625 0.3125 0.0000  plane waves:   15595
 k-point 33 :   0.3125 0.3750 0.0000  plane waves:   15595
 k-point 34 :  -0.1875 0.0625 0.0000  plane waves:   15544
 k-point 35 :  -0.2500-0.1875 0.0000  plane waves:   15544
 k-point 36 :  -0.0625-0.2500 0.0000  plane waves:   15544
 k-point 37 :  -0.2500-0.0625 0.0000  plane waves:   15544
 k-point 38 :  -0.0625 0.1875 0.0000  plane waves:   15544
 k-point 39 :   0.1875 0.2500 0.0000  plane waves:   15544
 k-point 40 :  -0.0625 0.0625 0.0000  plane waves:   15544
 k-point 41 :  -0.1250-0.0625 0.0000  plane waves:   15544
 k-point 42 :  -0.0625-0.1250 0.0000  plane waves:   15544
 k-point 43 :   0.1875 0.1875 0.0000  plane waves:   15537
 k-point 44 :   0.0000 0.1875 0.0000  plane waves:   15537
 k-point 45 :  -0.1875 0.0000 0.0000  plane waves:   15537
 k-point 46 :   0.3125 0.1875 0.0000  plane waves:   15578
 k-point 47 :   0.1250 0.3125 0.0000  plane waves:   15578
 k-point 48 :  -0.1875 0.1250 0.0000  plane waves:   15578
 k-point 49 :   0.1250-0.1875 0.0000  plane waves:   15578
 k-point 50 :  -0.1875-0.3125 0.0000  plane waves:   15578
 k-point 51 :  -0.3125-0.1250 0.0000  plane waves:   15578
 k-point 52 :   0.4375 0.1875 0.0000  plane waves:   15631
 k-point 53 :   0.2500 0.4375 0.0000  plane waves:   15631
 k-point 54 :  -0.1875 0.2500 0.0000  plane waves:   15631
 k-point 55 :   0.2500-0.1875 0.0000  plane waves:   15631
 k-point 56 :  -0.1875-0.4375 0.0000  plane waves:   15631
 k-point 57 :  -0.4375-0.2500 0.0000  plane waves:   15631
 k-point 58 :  -0.4375 0.1875 0.0000  plane waves:   15615
 k-point 59 :   0.3750-0.4375 0.0000  plane waves:   15615
 k-point 60 :  -0.1875 0.3750 0.0000  plane waves:   15615
 k-point 61 :   0.3750-0.1875 0.0000  plane waves:   15615
 k-point 62 :  -0.1875 0.4375 0.0000  plane waves:   15615
 k-point 63 :   0.4375-0.3750 0.0000  plane waves:   15615
 k-point 64 :  -0.3125 0.1875 0.0000  plane waves:   15634
 k-point 65 :   0.5000-0.3125 0.0000  plane waves:   15634
 k-point 66 :  -0.1875 0.5000 0.0000  plane waves:   15634
 k-point 67 :   0.5000-0.1875 0.0000  plane waves:   15634
 k-point 68 :  -0.1875 0.3125 0.0000  plane waves:   15634
 k-point 69 :   0.3125 0.5000 0.0000  plane waves:   15634
 k-point 70 :  -0.1875 0.1875 0.0000  plane waves:   15620
 k-point 71 :  -0.3750-0.1875 0.0000  plane waves:   15620
 k-point 72 :  -0.1875-0.3750 0.0000  plane waves:   15620
 k-point 73 :   0.3125 0.3125 0.0000  plane waves:   15575
 k-point 74 :   0.0000 0.3125 0.0000  plane waves:   15575
 k-point 75 :  -0.3125 0.0000 0.0000  plane waves:   15575
 k-point 76 :   0.4375 0.3125 0.0000  plane waves:   15613
 k-point 77 :   0.1250 0.4375 0.0000  plane waves:   15613
 k-point 78 :  -0.3125 0.1250 0.0000  plane waves:   15613
 k-point 79 :   0.1250-0.3125 0.0000  plane waves:   15613
 k-point 80 :  -0.3125-0.4375 0.0000  plane waves:   15613
 k-point 81 :  -0.4375-0.1250 0.0000  plane waves:   15613
 k-point 82 :  -0.4375 0.3125 0.0000  plane waves:   15622
 k-point 83 :   0.2500-0.4375 0.0000  plane waves:   15622
 k-point 84 :  -0.3125 0.2500 0.0000  plane waves:   15622
 k-point 85 :   0.2500-0.3125 0.0000  plane waves:   15622
 k-point 86 :  -0.3125 0.4375 0.0000  plane waves:   15622
 k-point 87 :   0.4375-0.2500 0.0000  plane waves:   15622
 k-point 88 :  -0.3125 0.3125 0.0000  plane waves:   15632
 k-point 89 :   0.3750-0.3125 0.0000  plane waves:   15632
 k-point 90 :  -0.3125 0.3750 0.0000  plane waves:   15632
 k-point 91 :   0.4375 0.4375 0.0000  plane waves:   15594
 k-point 92 :   0.0000 0.4375 0.0000  plane waves:   15594
 k-point 93 :  -0.4375 0.0000 0.0000  plane waves:   15594
 k-point 94 :  -0.4375 0.4375 0.0000  plane waves:   15602
 k-point 95 :   0.1250-0.4375 0.0000  plane waves:   15602
 k-point 96 :  -0.4375 0.1250 0.0000  plane waves:   15602

 maximum and minimum number of plane-waves per node :      1980     1918

 maximum number of plane-waves:     15634
 maximum index in each direction: 
   IXMAX=   10   IYMAX=   10   IZMAX=   42
   IXMIN=  -10   IYMIN=  -10   IZMIN=  -42


 parallel 3D FFT for wavefunctions:
    minimum data exchange during FFTs selected (reduces bandwidth)
 parallel 3D FFT for charge:
    minimum data exchange during FFTs selected (reduces bandwidth)


 total amount of memory used by VASP MPI-rank0   214819. kBytes
=======================================================================

   base      :      30000. kBytes
   nonl-proj :     108819. kBytes
   fftplans  :       3897. kBytes
   grid      :       7690. kBytes
   one-center:         31. kBytes
   wavefun   :      64382. kBytes
 
     INWAV:  cpu time    5.2915: real time    5.3399
 Broyden mixing: mesh for mixing (old mesh)
   NGX = 21   NGY = 21   NGZ = 85
  (NGX  = 80   NGY  = 80   NGZ  =360)
  gives a total of  37485 points

 charge density for first step will be calculated from the start-wavefunctions


--------------------------------------------------------------------------------------------------------


 Maximum index for augmentation-charges         1394 (set IRDMAX)


--------------------------------------------------------------------------------------------------------


 initial charge from wavefunction
 First call to EWALD:  gamma=   0.198
 Maximum number of real-space cells 5x 5x 1
 Maximum number of reciprocal cells 2x 2x 7

    FEWALD:  cpu time    0.0020: real time    0.0021


--------------------------------------- Iteration      1(   1)  ---------------------------------------


    POTLOK:  cpu time    0.0468: real time    0.0484
    SETDIJ:  cpu time    0.0042: real time    0.0045
     EDDAV:  cpu time   13.8938: real time   13.9791
       DOS:  cpu time    0.0051: real time    0.0052
    CHARGE:  cpu time    0.6001: real time    0.6025
    MIXING:  cpu time    0.0025: real time    0.0030
    --------------------------------------------
      LOOP:  cpu time   14.5526: real time   14.6427

 eigenvalue-minimisations  : 17320
 total energy-change (2. order) :-0.5623716E+02  (-0.9570200E-02)
 number of electron     136.0000003 magnetization 
 augmentation part       50.3766357 magnetization 

 Broyden mixing:
  rms(total) = 0.12628E+00    rms(broyden)= 0.12628E+00
  rms(prec ) = 0.15712E+00
  weight for this iteration     100.00

 Free energy of the ion-electron system (eV)
  ---------------------------------------------------
  alpha Z        PSCENC =       202.32958454
  Ewald energy   TEWEN  =     44499.02817426
  -Hartree energ DENC   =    -55621.69748499
  -exchange      EXHF   =         0.00000000
  -V(xc)+E(xc)   XCENC  =       -55.70393243
  PAW double counting   =     12479.09887723   -11979.86609800
  entropy T*S    EENTRO =        -0.01687967
  eigenvalues    EBANDS =      -565.75776241
  atomic energy  EATOM  =     10986.34835692
  Solvation  Ediel_sol  =         0.00000000
  ---------------------------------------------------
  free energy    TOTEN  =       -56.23716455 eV

  energy without entropy =      -56.22028489  energy(sigma->0) =      -56.22872472


--------------------------------------------------------------------------------------------------------




--------------------------------------- Iteration      1(   2)  ---------------------------------------


    POTLOK:  cpu time    0.0388: real time    0.0395
    SETDIJ:  cpu time    0.0036: real time    0.0036
    EDDIAG:  cpu time    2.1430: real time    2.1560
  RMM-DIIS:  cpu time   10.6517: real time   10.7099
    ORTHCH:  cpu time    0.2444: real time    0.2458
       DOS:  cpu time    0.0048: real time    0.0048
    CHARGE:  cpu time    0.6011: real time    0.6037
    MIXING:  cpu time    0.0020: real time    0.0022
    --------------------------------------------
      LOOP:  cpu time   13.6894: real time   13.7656

 eigenvalue-minimisations  : 17307
 total energy-change (2. order) :-0.2715473E+00  (-0.3345174E-01)
 number of electron     136.0000004 magnetization 
 augmentation part       50.1413116 magnetization 

 Broyden mixing:
  rms(total) = 0.52138E+00    rms(broyden)= 0.52136E+00
  rms(prec ) = 0.62653E+00
  weight for this iteration     100.00

 eigenvalues of (default mixing * dielectric matrix)
  average eigenvalue GAMMA=   0.1847
  0.1847

 Free energy of the ion-electron system (eV)
  ---------------------------------------------------
  alpha Z        PSCENC =       202.32958454
  Ewald energy   TEWEN  =     44499.02817426
  -Hartree energ DENC   =    -55620.57399620
  -exchange      EXHF   =         0.00000000
  -V(xc)+E(xc)   XCENC  =       -55.66340835
  PAW double counting   =     12482.07341585   -11982.68486451
  entropy T*S    EENTRO =        -0.01812628
  eigenvalues    EBANDS =      -567.34784809
  atomic energy  EATOM  =     10986.34835692
  Solvation  Ediel_sol  =         0.00000000
  ---------------------------------------------------
  free energy    TOTEN  =       -56.50871187 eV

  energy without entropy =      -56.49058558  energy(sigma->0) =      -56.49964873


--------------------------------------------------------------------------------------------------------




--------------------------------------- Iteration      1(   3)  ---------------------------------------


    POTLOK:  cpu time    0.0394: real time    0.0397
    SETDIJ:  cpu time    0.0038: real time    0.0038
    EDDIAG:  cpu time    2.1447: real time    2.1552
  RMM-DIIS:  cpu time   10.3912: real time   10.4380
    ORTHCH:  cpu time    0.2355: real time    0.2362
       DOS:  cpu time    0.0049: real time    0.0049
    CHARGE:  cpu time    0.6000: real time    0.6023
    MIXING:  cpu time    0.0019: real time    0.0019
    --------------------------------------------
      LOOP:  cpu time   13.4214: real time   13.4820

 eigenvalue-minimisations  : 16549
 total energy-change (2. order) : 0.2805911E+00  (-0.1794842E-01)
 number of electron     136.0000003 magnetization 
 augmentation part       50.2833700 magnetization 

 Broyden mixing:
  rms(total) = 0.12282E+00    rms(broyden)= 0.12279E+00
  rms(prec ) = 0.13760E+00
  weight for this iteration     100.00

 eigenvalues of (default mixing * dielectric matrix)
  average eigenvalue GAMMA=   0.2353
  0.2950  0.1755

 Free energy of the ion-electron system (eV)
  ---------------------------------------------------
  alpha Z        PSCENC =       202.32958454
  Ewald energy   TEWEN  =     44499.02817426
  -Hartree energ DENC   =    -55622.65711044
  -exchange      EXHF   =         0.00000000
  -V(xc)+E(xc)   XCENC  =       -55.69480606
  PAW double counting   =     12481.46427395   -11982.18777752
  entropy T*S    EENTRO =        -0.01640097
  eigenvalues    EBANDS =      -564.84241539
  atomic energy  EATOM  =     10986.34835692
  Solvation  Ediel_sol  =         0.00000000
  ---------------------------------------------------
  free energy    TOTEN  =       -56.22812072 eV

  energy without entropy =      -56.21171975  energy(sigma->0) =      -56.21992024


--------------------------------------------------------------------------------------------------------




--------------------------------------- Iteration      1(   4)  ---------------------------------------


    POTLOK:  cpu time    0.0390: real time    0.0393
    SETDIJ:  cpu time    0.0038: real time    0.0038
    EDDIAG:  cpu time    2.1585: real time    2.1657
  RMM-DIIS:  cpu time   10.1772: real time   10.2214
    ORTHCH:  cpu time    0.2346: real time    0.2354
       DOS:  cpu time    0.0048: real time    0.0048
    CHARGE:  cpu time    0.6021: real time    0.6042
    MIXING:  cpu time    0.0020: real time    0.0020
    --------------------------------------------
      LOOP:  cpu time   13.2220: real time   13.2766

 eigenvalue-minimisations  : 16175
 total energy-change (2. order) : 0.1803448E-01  (-0.2237596E-02)
 number of electron     136.0000003 magnetization 
 augmentation part       50.3152305 magnetization 

 Broyden mixing:
  rms(total) = 0.16544E-01    rms(broyden)= 0.16531E-01
  rms(prec ) = 0.17648E-01
  weight for this iteration     100.00

 eigenvalues of (default mixing * dielectric matrix)
  average eigenvalue GAMMA=   0.3167
  0.4112  0.3724  0.1666

 Free energy of the ion-electron system (eV)
  ---------------------------------------------------
  alpha Z        PSCENC =       202.32958454
  Ewald energy   TEWEN  =     44499.02817426
  -Hartree energ DENC   =    -55621.33510270
  -exchange      EXHF   =         0.00000000
  -V(xc)+E(xc)   XCENC  =       -55.69598302
  PAW double counting   =     12481.09983201   -11981.85495941
  entropy T*S    EENTRO =        -0.01779857
  eigenvalues    EBANDS =      -566.11219026
  atomic energy  EATOM  =     10986.34835692
  Solvation  Ediel_sol  =         0.00000000
  ---------------------------------------------------
  free energy    TOTEN  =       -56.21008624 eV

  energy without entropy =      -56.19228767  energy(sigma->0) =      -56.20118695


--------------------------------------------------------------------------------------------------------




--------------------------------------- Iteration      1(   5)  ---------------------------------------


    POTLOK:  cpu time    0.0396: real time    0.0399
    SETDIJ:  cpu time    0.0039: real time    0.0039
    EDDIAG:  cpu time    2.1426: real time    2.1519
  RMM-DIIS:  cpu time    9.6605: real time    9.7028
    ORTHCH:  cpu time    0.2341: real time    0.2349
       DOS:  cpu time    0.0043: real time    0.0043
    CHARGE:  cpu time    0.6030: real time    0.6049
    MIXING:  cpu time    0.0018: real time    0.0018
    --------------------------------------------
      LOOP:  cpu time   12.6898: real time   12.7443

 eigenvalue-minimisations  : 15520
 total energy-change (2. order) : 0.2585053E-03  (-0.9486368E-04)
 number of electron     136.0000003 magnetization 
 augmentation part       50.3205663 magnetization 

 Broyden mixing:
  rms(total) = 0.11703E-01    rms(broyden)= 0.11702E-01
  rms(prec ) = 0.12621E-01
  weight for this iteration     100.00

 eigenvalues of (default mixing * dielectric matrix)
  average eigenvalue GAMMA=   0.3745
  0.5241  0.5241  0.1685  0.2811

 Free energy of the ion-electron system (eV)
  ---------------------------------------------------
  alpha Z        PSCENC =       202.32958454
  Ewald energy   TEWEN  =     44499.02817426
  -Hartree energ DENC   =    -55621.25725737
  -exchange      EXHF   =         0.00000000
  -V(xc)+E(xc)   XCENC  =       -55.69683287
  PAW double counting   =     12480.97987804   -11981.73576367
  entropy T*S    EENTRO =        -0.01800488
  eigenvalues    EBANDS =      -566.18796270
  atomic energy  EATOM  =     10986.34835692
  Solvation  Ediel_sol  =         0.00000000
  ---------------------------------------------------
  free energy    TOTEN  =       -56.20982773 eV

  energy without entropy =      -56.19182286  energy(sigma->0) =      -56.20082529


--------------------------------------------------------------------------------------------------------




--------------------------------------- Iteration      1(   6)  ---------------------------------------


    POTLOK:  cpu time    0.0390: real time    0.0393
    SETDIJ:  cpu time    0.0037: real time    0.0037
    EDDIAG:  cpu time    2.1431: real time    2.1502
  RMM-DIIS:  cpu time    7.9053: real time    7.9383
    ORTHCH:  cpu time    0.2352: real time    0.2359
       DOS:  cpu time    0.0047: real time    0.0047
    --------------------------------------------
      LOOP:  cpu time   10.3310: real time   10.3721

 eigenvalue-minimisations  : 12232
 total energy-change (2. order) : 0.9100717E-04  (-0.2931342E-04)
 number of electron     136.0000003 magnetization 
 augmentation part       50.3205663 magnetization 

 Free energy of the ion-electron system (eV)
  ---------------------------------------------------
  alpha Z        PSCENC =       202.32958454
  Ewald energy   TEWEN  =     44499.02817426
  -Hartree energ DENC   =    -55621.32061955
  -exchange      EXHF   =         0.00000000
  -V(xc)+E(xc)   XCENC  =       -55.69616379
  PAW double counting   =     12480.98901559   -11981.73820354
  entropy T*S    EENTRO =        -0.01784031
  eigenvalues    EBANDS =      -566.13204085
  atomic energy  EATOM  =     10986.34835692
  Solvation  Ediel_sol  =         0.00000000
  ---------------------------------------------------
  free energy    TOTEN  =       -56.20973673 eV

  energy without entropy =      -56.19189642  energy(sigma->0) =      -56.20081657


--------------------------------------------------------------------------------------------------------




 average (electrostatic) potential at core
  the test charge radii are     1.1199  1.2098  0.7215  0.6991
  (the norm of the test charge is              1.0000)
       1 -80.3296       2 -80.3854       3 -80.6269       4 -80.6365       5 -80.6628
       6 -80.6651       7 -73.4700       8 -73.4698       9 -74.9172      10 -73.7701
      11 -73.7533      12 -73.7534      13 -80.0104      14 -59.0831
 
 
 
 E-fermi :  -0.8687     XC(G=0):  -4.5794     alpha+bet : -4.2783


 k-point     1 :       0.0625    0.0625    0.0000
  band No.  band energies     occupation 
      1     -25.6528      2.00000
      2     -11.1574      2.00000
      3      -8.8363      2.00000
      4      -8.2488      2.00000
      5      -8.2470      2.00000
      6      -7.9825      2.00000
      7      -6.8229      2.00000
      8      -6.7039      2.00000
      9      -6.6996      2.00000
     10      -6.5359      2.00000
     11      -5.9692      2.00000
     12      -5.9678      2.00000
     13      -5.7767      2.00000
     14      -5.6899      2.00000
     15      -5.5116      2.00000
     16      -5.2991      2.00000
     17      -5.2011      2.00000
     18      -5.0756      2.00000
     19      -5.0607      2.00000
     20      -4.9181      2.00000
     21      -4.7672      2.00000
     22      -4.7543      2.00000
     23      -4.7281      2.00000
     24      -4.6806      2.00000
     25      -4.5734      2.00000
     26      -4.1498      2.00000
     27      -4.0814      2.00000
     28      -4.0034      2.00000
     29      -3.7609      2.00000
     30      -3.7559      2.00000
     31      -3.6985      2.00000
     32      -3.6953      2.00000
     33      -3.6117      2.00000
     34      -3.5842      2.00000
     35      -3.5427      2.00000
     36      -3.4644      2.00000
     37      -3.4323      2.00000
     38      -3.1640      2.00000
     39      -3.0439      2.00000
     40      -3.0405      2.00000
     41      -2.8421      2.00000
     42      -2.7958      2.00000
     43      -2.6649      2.00000
     44      -2.6527      2.00000
     45      -2.5124      2.00000
     46      -2.4803      2.00000
     47      -2.4229      2.00000
     48      -2.2061      2.00000
     49      -2.1559      2.00000
     50      -2.0336      2.00000
     51      -1.9414      2.00000
     52      -1.9214      2.00000
     53      -1.7854      2.00000
     54      -1.7131      2.00000
     55      -1.5610      2.00000
     56      -1.4112      2.00000
     57      -1.3677      2.00000
     58      -1.3666      2.00000
     59      -1.3081      2.00000
     60      -1.2342      2.00000
     61      -1.1762      2.00000
     62      -1.0606      2.00000
     63      -0.9267      1.89908
     64      -0.8705      1.04058
     65      -0.7990      0.04871
     66      -0.7560      0.00144
     67      -0.7262      0.00006
     68      -0.5519      0.00000
     69      -0.1082      0.00000
     70      -0.0018      0.00000
     71       0.3927      0.00000
     72       1.0048      0.00000
     73       1.1455      0.00000
     74       1.2435      0.00000
     75       1.4591      0.00000
     76       1.8607      0.00000
     77       2.0079      0.00000
     78       2.2804      0.00000
     79       2.4919      0.00000
     80       2.6892      0.00000
     81       3.0671      0.00000
     82       3.3608      0.00000
     83       3.6384      0.00000
     84       4.0772      0.00000

 k-point     2 :       0.0000    0.0625    0.0000
  band No.  band energies     occupation 
      1     -25.6528      2.00000
      2     -11.1574      2.00000
      3      -8.8362      2.00000
      4      -8.2491      2.00000
      5      -8.2467      2.00000
      6      -7.9824      2.00000
      7      -6.8163      2.00000
      8      -6.7092      2.00000
      9      -6.6959      2.00000
     10      -6.5352      2.00000
     11      -5.9703      2.00000
     12      -5.9666      2.00000
     13      -5.7701      2.00000
     14      -5.6897      2.00000
     15      -5.5139      2.00000
     16      -5.2968      2.00000
     17      -5.2077      2.00000
     18      -5.0811      2.00000
     19      -5.0570      2.00000
     20      -4.9140      2.00000
     21      -4.7673      2.00000
     22      -4.7555      2.00000
     23      -4.7267      2.00000
     24      -4.6806      2.00000
     25      -4.5753      2.00000
     26      -4.1342      2.00000
     27      -4.0988      2.00000
     28      -4.0091      2.00000
     29      -3.7656      2.00000
     30      -3.7396      2.00000
     31      -3.7127      2.00000
     32      -3.6817      2.00000
     33      -3.6323      2.00000
     34      -3.6059      2.00000
     35      -3.5413      2.00000
     36      -3.4591      2.00000
     37      -3.4233      2.00000
     38      -3.1472      2.00000
     39      -3.0801      2.00000
     40      -3.0246      2.00000
     41      -2.8400      2.00000
     42      -2.7794      2.00000
     43      -2.6775      2.00000
     44      -2.6452      2.00000
     45      -2.5004      2.00000
     46      -2.4759      2.00000
     47      -2.4280      2.00000
     48      -2.2204      2.00000
     49      -2.1081      2.00000
     50      -2.0504      2.00000
     51      -1.9679      2.00000
     52      -1.9396      2.00000
     53      -1.7672      2.00000
     54      -1.7433      2.00000
     55      -1.5442      2.00000
     56      -1.4236      2.00000
     57      -1.3844      2.00000
     58      -1.3434      2.00000
     59      -1.2937      2.00000
     60      -1.2074      2.00000
     61      -1.1582      2.00000
     62      -1.0851      2.00000
     63      -0.9732      1.99688
     64      -0.8515      0.62597
     65      -0.7852      0.01823
     66      -0.7733      0.00695
     67      -0.7234      0.00004
     68      -0.5277      0.00000
     69      -0.1169      0.00000
     70      -0.0123      0.00000
     71       0.3965      0.00000
     72       0.9539      0.00000
     73       1.0806      0.00000
     74       1.2929      0.00000
     75       1.5516      0.00000
     76       1.8384      0.00000
     77       2.0069      0.00000
     78       2.3263      0.00000
     79       2.4720      0.00000
     80       2.6677      0.00000
     81       3.0673      0.00000
     82       3.4500      0.00000
     83       3.5909      0.00000
     84       3.9702      0.00000

 k-point     3 :      -0.0625    0.0000    0.0000
  band No.  band energies     occupation 
      1     -25.6528      2.00000
      2     -11.1574      2.00000
      3      -8.8362      2.00000
      4      -8.2494      2.00000
      5      -8.2464      2.00000
      6      -7.9824      2.00000
      7      -6.8163      2.00000
      8      -6.7095      2.00000
      9      -6.6955      2.00000
     10      -6.5351      2.00000
     11      -5.9706      2.00000
     12      -5.9664      2.00000
     13      -5.7701      2.00000
     14      -5.6897      2.00000
     15      -5.5139      2.00000
     16      -5.2968      2.00000
     17      -5.2077      2.00000
     18      -5.0811      2.00000
     19      -5.0571      2.00000
     20      -4.9139      2.00000
     21      -4.7668      2.00000
     22      -4.7559      2.00000
     23      -4.7267      2.00000
     24      -4.6806      2.00000
     25      -4.5753      2.00000
     26      -4.1341      2.00000
     27      -4.0989      2.00000
     28      -4.0093      2.00000
     29      -3.7657      2.00000
     30      -3.7395      2.00000
     31      -3.7124      2.00000
     32      -3.6818      2.00000
     33      -3.6322      2.00000
     34      -3.6059      2.00000
     35      -3.5412      2.00000
     36      -3.4594      2.00000
     37      -3.4233      2.00000
     38      -3.1472      2.00000
     39      -3.0801      2.00000
     40      -3.0247      2.00000
     41      -2.8401      2.00000
     42      -2.7793      2.00000
     43      -2.6774      2.00000
     44      -2.6451      2.00000
     45      -2.5010      2.00000
     46      -2.4752      2.00000
     47      -2.4279      2.00000
     48      -2.2204      2.00000
     49      -2.1081      2.00000
     50      -2.0507      2.00000
     51      -1.9679      2.00000
     52      -1.9393      2.00000
     53      -1.7673      2.00000
     54      -1.7434      2.00000
     55      -1.5442      2.00000
     56      -1.4237      2.00000
     57      -1.3845      2.00000
     58      -1.3434      2.00000
     59      -1.2938      2.00000
     60      -1.2076      2.00000
     61      -1.1581      2.00000
     62      -1.0848      2.00000
     63      -0.9732      1.99689
     64      -0.8515      0.62676
     65      -0.7849      0.01772
     66      -0.7736      0.00713
     67      -0.7235      0.00004
     68      -0.5278      0.00000
     69      -0.1164      0.00000
     70      -0.0136      0.00000
     71       0.3965      0.00000
     72       0.9547      0.00000
     73       1.0797      0.00000
     74       1.2940      0.00000
     75       1.5613      0.00000
     76       1.8239      0.00000
     77       2.0126      0.00000
     78       2.3178      0.00000
     79       2.4725      0.00000
     80       2.6737      0.00000
     81       3.0682      0.00000
     82       3.4489      0.00000
     83       3.5935      0.00000
     84       3.9578      0.00000

 k-point     4 :       0.1875    0.0625    0.0000
  band No.  band energies     occupation 
      1     -25.6528      2.00000
      2     -11.1542      2.00000
      3      -8.8103      2.00000
      4      -8.2524      2.00000
      5      -8.2471      2.00000
      6      -7.8302      2.00000
      7      -6.6707      2.00000
      8      -6.6366      2.00000
      9      -6.5639      2.00000
     10      -6.4079      2.00000
     11      -5.9225      2.00000
     12      -5.9030      2.00000
     13      -5.6676      2.00000
[...]
     19      -4.7885      2.00000
     20      -4.7622      2.00000
     21      -4.7235      2.00000
     22      -4.6473      2.00000
     23      -4.5648      2.00000
     24      -4.4574      2.00000
     25      -4.4262      2.00000
     26      -4.3742      2.00000
     27      -4.3201      2.00000
     28      -4.1868      2.00000
     29      -4.1365      2.00000
     30      -4.0582      2.00000
     31      -4.0278      2.00000
     32      -3.9705      2.00000
     33      -3.8739      2.00000
     34      -3.8342      2.00000
     35      -3.6309      2.00000
     36      -3.5757      2.00000
     37      -3.5295      2.00000
     38      -3.4851      2.00000
     39      -3.4380      2.00000
     40      -3.3854      2.00000
     41      -3.3744      2.00000
     42      -3.2913      2.00000
     43      -3.2358      2.00000
     44      -3.1337      2.00000
     45      -3.0920      2.00000
     46      -2.9936      2.00000
     47      -2.8816      2.00000
     48      -2.7606      2.00000
     49      -2.6475      2.00000
     50      -2.5622      2.00000
     51      -2.4190      2.00000
     52      -2.3546      2.00000
     53      -2.2839      2.00000
     54      -2.1977      2.00000
     55      -2.1570      2.00000
     56      -2.1212      2.00000
     57      -1.9458      2.00000
     58      -1.8039      2.00000
     59      -1.7300      2.00000
     60      -1.6794      2.00000
     61      -1.5736      2.00000
     62      -1.5045      2.00000
     63      -1.4584      2.00000
     64      -1.3528      2.00000
     65      -1.2919      2.00000
     66      -1.2391      2.00000
     67      -1.2108      2.00000
     68      -0.9446      1.96807
     69      -0.9054      1.70130
     70      -0.4356      0.00000
     71       0.1599      0.00000
     72       0.7011      0.00000
     73       1.0048      0.00000
     74       1.3330      0.00000
     75       1.5302      0.00000
     76       1.9392      0.00000
     77       2.7278      0.00000
     78       2.9862      0.00000
     79       3.5167      0.00000
     80       4.0470      0.00000
     81       4.6094      0.00000
     82       4.7639      0.00000
     83       4.8994      0.00000
     84       5.3511      0.00000

 k-point    95 :       0.1250   -0.4375    0.0000
  band No.  band energies     occupation 
      1     -25.6529      2.00000
      2     -11.1430      2.00000
      3      -8.7461      2.00000
      4      -8.2604      2.00000
      5      -8.2499      2.00000
      6      -6.6201      2.00000
      7      -6.5497      2.00000
      8      -5.8097      2.00000
      9      -5.6402      2.00000
     10      -5.5913      2.00000
     11      -5.5569      2.00000
     12      -5.4657      2.00000
     13      -5.3255      2.00000
     14      -5.3062      2.00000
     15      -5.1153      2.00000
     16      -4.9691      2.00000
     17      -4.9097      2.00000
     18      -4.7964      2.00000
     19      -4.7804      2.00000
     20      -4.7351      2.00000
     21      -4.6775      2.00000
     22      -4.6446      2.00000
     23      -4.5777      2.00000
     24      -4.5048      2.00000
     25      -4.4632      2.00000
     26      -4.3955      2.00000
     27      -4.3255      2.00000
     28      -4.3185      2.00000
     29      -4.2702      2.00000
     30      -4.1397      2.00000
     31      -4.1180      2.00000
     32      -4.0522      2.00000
     33      -4.0011      2.00000
     34      -3.8987      2.00000
     35      -3.8558      2.00000
     36      -3.8098      2.00000
     37      -3.6952      2.00000
     38      -3.5450      2.00000
     39      -3.5186      2.00000
     40      -3.4090      2.00000
     41      -3.3282      2.00000
     42      -3.2463      2.00000
     43      -3.2101      2.00000
     44      -3.0658      2.00000
     45      -2.9973      2.00000
     46      -2.8253      2.00000
     47      -2.7709      2.00000
     48      -2.6128      2.00000
     49      -2.5832      2.00000
     50      -2.4641      2.00000
     51      -2.4104      2.00000
     52      -2.3491      2.00000
     53      -2.2929      2.00000
     54      -2.1816      2.00000
     55      -2.1535      2.00000
     56      -2.0452      2.00000
     57      -1.9611      2.00000
     58      -1.8121      2.00000
     59      -1.7644      2.00000
     60      -1.6192      2.00000
     61      -1.6020      2.00000
     62      -1.5488      2.00000
     63      -1.4887      2.00000
     64      -1.3983      2.00000
     65      -1.2619      2.00000
     66      -1.1597      2.00000
     67      -1.1096      2.00000
     68      -1.0465      2.00000
     69      -0.9549      1.98518
     70      -0.4285      0.00000
     71       0.2500      0.00000
     72       0.6145      0.00000
     73       1.0214      0.00000
     74       1.4388      0.00000
     75       1.4815      0.00000
     76       1.9388      0.00000
     77       2.8917      0.00000
     78       2.9619      0.00000
     79       3.4921      0.00000
     80       4.1268      0.00000
     81       4.6455      0.00000
     82       4.7200      0.00000
     83       4.9017      0.00000
     84       5.3298      0.00000

 k-point    96 :      -0.4375    0.1250    0.0000
  band No.  band energies     occupation 
      1     -25.6529      2.00000
      2     -11.1430      2.00000
      3      -8.7462      2.00000
      4      -8.2612      2.00000
      5      -8.2490      2.00000
      6      -6.6203      2.00000
      7      -6.5499      2.00000
      8      -5.8060      2.00000
      9      -5.6444      2.00000
     10      -5.5923      2.00000
     11      -5.5568      2.00000
     12      -5.4658      2.00000
     13      -5.3230      2.00000
     14      -5.3073      2.00000
     15      -5.1130      2.00000
     16      -4.9702      2.00000
     17      -4.9108      2.00000
     18      -4.7966      2.00000
     19      -4.7794      2.00000
     20      -4.7355      2.00000
     21      -4.6787      2.00000
     22      -4.6441      2.00000
     23      -4.5773      2.00000
     24      -4.5050      2.00000
     25      -4.4631      2.00000
     26      -4.3956      2.00000
     27      -4.3253      2.00000
     28      -4.3190      2.00000
     29      -4.2699      2.00000
     30      -4.1393      2.00000
     31      -4.1180      2.00000
     32      -4.0521      2.00000
     33      -3.9998      2.00000
     34      -3.8981      2.00000
     35      -3.8562      2.00000
     36      -3.8084      2.00000
     37      -3.6946      2.00000
     38      -3.5476      2.00000
     39      -3.5195      2.00000
     40      -3.4099      2.00000
     41      -3.3276      2.00000
     42      -3.2462      2.00000
     43      -3.2101      2.00000
     44      -3.0654      2.00000
     45      -2.9969      2.00000
     46      -2.8250      2.00000
     47      -2.7712      2.00000
     48      -2.6125      2.00000
     49      -2.5827      2.00000
     50      -2.4641      2.00000
     51      -2.4104      2.00000
     52      -2.3493      2.00000
     53      -2.2923      2.00000
     54      -2.1818      2.00000
     55      -2.1534      2.00000
     56      -2.0453      2.00000
     57      -1.9608      2.00000
     58      -1.8119      2.00000
     59      -1.7646      2.00000
     60      -1.6194      2.00000
     61      -1.6023      2.00000
     62      -1.5483      2.00000
     63      -1.4888      2.00000
     64      -1.3987      2.00000
     65      -1.2620      2.00000
     66      -1.1603      2.00000
     67      -1.1086      2.00000
     68      -1.0471      2.00000
     69      -0.9549      1.98522
     70      -0.4287      0.00000
     71       0.2499      0.00000
     72       0.6121      0.00000
     73       1.0269      0.00000
     74       1.4055      0.00000
     75       1.5134      0.00000
     76       1.9380      0.00000
     77       2.8919      0.00000
     78       2.9610      0.00000
     79       3.4909      0.00000
     80       4.1232      0.00000
     81       4.6430      0.00000
     82       4.7218      0.00000
     83       4.9041      0.00000
     84       5.3280      0.00000


--------------------------------------------------------------------------------------------------------


 soft charge-density along one line, spin component           1
         0         1         2         3         4         5         6         7         8         9
 total charge-density along one line
 
 pseudopotential strength for first ion, spin component:           1
 -6.889   0.000  -0.012  -0.006  -0.004  -6.929   0.000  -0.011
  0.000  -6.819   0.000   0.007  -0.007   0.000  -6.862   0.000
 -0.012   0.000  -6.812   0.001  -0.007  -0.011   0.000  -6.855
 -0.006   0.007   0.001  -6.811   0.001  -0.006   0.007   0.001
 -0.004  -0.007  -0.007   0.001  -6.884  -0.004  -0.007  -0.007
 -6.929   0.000  -0.011  -0.006  -0.004  -6.944   0.000  -0.011
  0.000  -6.862   0.000   0.007  -0.007   0.000  -6.880   0.000
 -0.011   0.000  -6.855   0.001  -0.007  -0.011   0.000  -6.874
 -0.006   0.007   0.001  -6.854   0.001  -0.006   0.006   0.001
 -0.004  -0.007  -0.007   0.001  -6.924  -0.004  -0.006  -0.006
 -0.003  -0.000  -0.020  -0.000  -0.002  -0.003  -0.000  -0.019
 -0.005  -0.000  -0.034  -0.001  -0.003  -0.005  -0.000  -0.032
 -0.001  -0.013   0.000   0.000   0.001  -0.001  -0.012   0.000
  0.000  -0.000  -0.015  -0.001   0.000   0.000  -0.000  -0.015
 -0.000   0.000   0.000  -0.012  -0.001  -0.000   0.000   0.000
 -0.001  -0.014   0.000   0.000   0.001  -0.001  -0.013   0.000
  0.000  -0.000  -0.017  -0.001   0.000   0.000  -0.000  -0.016
 -0.000   0.000   0.000  -0.014  -0.001  -0.000   0.000   0.000
 total augmentation occupancy for first ion, spin component:           1
  2.297  -0.007  -0.166  -0.079  -0.167  -1.000   0.004   0.135  -0.008   0.130  -0.079   0.013   0.001   0.013  -0.018  -0.000
 -0.007   2.299   0.002  -0.019  -0.075   0.004  -0.699   0.000   0.010  -0.009   0.000  -0.001  -0.103   0.001   0.010  -0.010
 -0.166   0.002   2.486   0.008  -0.096   0.136  -0.000  -1.001  -0.003   0.079   0.648  -0.167   0.001  -0.096   0.001   0.000
 -0.079  -0.019   0.008   2.278  -0.004  -0.005   0.010  -0.003  -0.687   0.003  -0.001  -0.001   0.010   0.002  -0.092   0.000
 -0.167  -0.075  -0.096  -0.004   2.487   0.130  -0.011   0.078   0.003  -1.149  -0.046   0.007  -0.019   0.008   0.001   0.003
 -1.000   0.004   0.136  -0.005   0.130   1.450  -0.002  -0.123   0.068  -0.111   0.077  -0.027  -0.001  -0.013   0.027  -0.000
  0.004  -0.699  -0.000   0.010  -0.011  -0.002   0.967  -0.002  -0.001   0.070   0.001  -0.000   0.126  -0.001  -0.010  -0.012
  0.135   0.000  -1.001  -0.003   0.078  -0.123  -0.002   1.333  -0.001  -0.071  -0.443   0.077  -0.000   0.189   0.000   0.000
 -0.008   0.010  -0.003  -0.687   0.003   0.068  -0.001  -0.001   0.965  -0.001   0.004  -0.001  -0.010  -0.001   0.113   0.001
  0.130  -0.009   0.079   0.003  -1.149  -0.111   0.070  -0.071  -0.001   1.577   0.044  -0.015   0.028  -0.008  -0.001  -0.003
 -0.079   0.000   0.648  -0.001  -0.046   0.077   0.001  -0.443   0.004   0.044   1.805  -0.319   0.000   0.164   0.001  -0.000
  0.013  -0.001  -0.167  -0.001   0.007  -0.027  -0.000   0.077  -0.001  -0.015  -0.319   0.061   0.000  -0.033   0.000   0.000
  0.001  -0.103   0.001   0.010  -0.019  -0.001   0.126  -0.000  -0.010   0.028   0.000   0.000   0.163  -0.000   0.006  -0.012
  0.013   0.001  -0.096   0.002   0.008  -0.013  -0.001   0.189  -0.001  -0.008   0.164  -0.033  -0.000   0.094  -0.001   0.000
 -0.018   0.010   0.001  -0.092   0.001   0.027  -0.010   0.000   0.113  -0.001   0.001   0.000   0.006  -0.001   0.170  -0.001
 -0.000  -0.010   0.000   0.000   0.003  -0.000  -0.012   0.000   0.001  -0.003  -0.000   0.000  -0.012   0.000  -0.001   0.001
  0.001  -0.000  -0.020  -0.001   0.000   0.000   0.000  -0.015   0.000   0.000  -0.022   0.005   0.000  -0.008  -0.000   0.000
  0.002   0.000   0.000  -0.010  -0.000  -0.003   0.001  -0.000  -0.012   0.000  -0.000   0.000  -0.001   0.000  -0.013   0.000


------------------------ aborting loop because EDIFF is reached ----------------------------------------


    CHARGE:  cpu time    0.5963: real time    0.5981
    FORLOC:  cpu time    0.0065: real time    0.0065
    FORNL :  cpu time    2.3005: real time    2.3111
    STRESS:  cpu time    5.6001: real time    5.6211
    FORCOR:  cpu time    0.0495: real time    0.0498
    FORHAR:  cpu time    0.0141: real time    0.0142
    MIXING:  cpu time    0.0018: real time    0.0018
    OFIELD:  cpu time    0.0001: real time    0.0001

  FORCE on cell =-STRESS in cart. coord.  units (eV):
  Direction    XX          YY          ZZ          XY          YZ          ZX
  --------------------------------------------------------------------------------------
  Alpha Z   202.32958   202.32958   202.32958
  Ewald   51455.13890 51464.87730-58421.00270    -6.75680    22.49783    -2.01771
  Hartree 54257.77493 54261.09831-52898.99962    -2.23481     7.96907    -0.38583
  E(xc)    -654.44724  -654.26413  -657.19604    -0.15248     0.10472    -0.01722
  Local  ************************109060.37477     6.56764   -28.53305     1.86659
  n-local   -66.73583   -66.19107   -73.66335    -0.49617    -0.46640     0.16762
  augment   854.00622   852.40503   863.78666     1.37639    -0.04239     0.12869
  Kinetic  1927.21905  1924.82163  1924.03467     1.98550    -1.53096     0.30469
  Fock        0.00000     0.00000     0.00000     0.00000     0.00000     0.00000
  -------------------------------------------------------------------------------------
  Total      -6.77980    -7.11535    -0.33601     0.28927    -0.00117     0.04684
  in kB     -15.10175   -15.84918    -0.74845     0.64434    -0.00261     0.10433
  external pressure =      -10.57 kB  Pullay stress =        0.00 kB


 VOLUME and BASIS-vectors are now :
 -----------------------------------------------------------------------------
  energy-cutoff  :      450.00
  volume of cell :      719.28
      direct lattice vectors                 reciprocal lattice vectors
     5.795062739  0.000000000  0.000000000     0.172560686 -0.099627958  0.000000000
     2.897531369  5.018671548  0.000000000     0.000000000  0.199255917  0.000000000
     0.000000000  0.000000000 24.731648912     0.000000000  0.000000000  0.040434021

  length of vectors
     5.795062739  5.795062739 24.731648912     0.199255917  0.199255917  0.040434021


 FORCES acting on ions
    electron-ion (+dipol)            ewald-force                    non-local-force                 convergence-correction
 -----------------------------------------------------------------------------------------------
   -.642E+00 -.366E+00 0.194E+04   0.655E+00 0.385E+00 -.193E+04   -.173E-01 -.683E-02 -.266E+01   0.374E-02 -.124E-01 -.719E-01
   -.839E+00 -.538E+00 0.196E+04   0.854E+00 0.534E+00 -.196E+04   -.399E-01 -.228E-01 -.274E+01   0.212E-01 0.266E-01 -.470E-01
   -.221E+01 -.124E+01 0.248E+03   0.188E+01 0.105E+01 -.248E+03   0.315E+00 0.181E+00 0.327E+00   0.146E-01 0.707E-02 -.156E+00
   0.575E+01 0.325E+01 0.223E+03   -.568E+01 -.322E+01 -.222E+03   -.662E-01 -.345E-01 0.702E-01   -.206E-02 0.174E-02 -.164E+00
   0.222E+01 -.734E+01 0.217E+03   -.191E+01 0.708E+01 -.217E+03   -.293E+00 0.247E+00 0.402E+00   -.146E-01 0.118E-01 -.169E+00
   -.532E+01 0.557E+01 0.216E+03   0.524E+01 -.517E+01 -.216E+03   0.758E-01 -.378E+00 0.387E+00   0.307E-02 -.144E-01 -.167E+00
   0.200E+00 0.401E+00 0.220E+04   -.264E+00 -.461E+00 -.219E+04   0.644E-01 0.983E-01 -.124E+01   -.917E-03 -.387E-01 -.310E-01
   0.398E+00 -.685E-01 0.220E+04   -.495E+00 0.357E-01 -.219E+04   0.118E+00 0.840E-02 -.124E+01   -.205E-01 0.250E-01 -.174E-01
   0.915E+00 0.487E+01 -.172E+04   -.943E+00 -.484E+01 0.172E+04   0.463E-01 -.334E-01 0.109E+01   -.187E-01 0.481E-02 -.896E-01
   -.158E+01 -.289E+01 -.172E+04   0.159E+01 0.294E+01 0.172E+04   0.242E-01 -.780E-02 0.165E+01   -.361E-01 -.400E-01 -.125E+00
   0.326E+00 0.313E+01 -.172E+04   -.235E+00 -.318E+01 0.172E+04   -.105E+00 0.903E-02 0.136E+01   0.160E-01 0.408E-01 -.112E+00
   0.133E+01 -.237E+01 -.172E+04   -.130E+01 0.249E+01 0.172E+04   -.629E-01 -.107E+00 0.136E+01   0.294E-01 -.162E-01 -.128E+00
   0.572E+00 -.132E+02 -.150E+04   -.773E+00 0.172E+02 0.156E+04   0.190E+00 -.401E+01 -.601E+02   0.667E-02 0.402E-01 -.729E-01
   -.128E+01 0.133E+02 -.776E+03   0.138E+01 -.148E+02 0.757E+03   -.101E+00 0.149E+01 0.189E+02   0.533E-02 0.169E-01 -.565E-03
 -----------------------------------------------------------------------------------------------
   -.160E+00 0.251E+01 0.438E+02   0.444E-15 0.178E-14 0.227E-12   0.150E+00 -.257E+01 -.424E+02   0.706E-02 0.531E-01 -.135E+01
 
 
 POSITION                                       TOTAL-FORCE (eV/Angst)
 -----------------------------------------------------------------------------------
      8.68406      5.01485     10.07273         0.000302      0.000007     -0.002907
      4.33609      2.50432     10.04560        -0.003124      0.000193     -0.003103
      5.79554      3.34786     12.30733        -0.000873     -0.000041     -0.004691
      1.48284      0.85796     12.33784        -0.001838      0.000100      0.000848
      2.90526      3.32241     12.34806         0.000866     -0.001945      0.002505
      4.32766      0.85803     12.34900        -0.000892      0.002019      0.005618
      5.78973      5.01681      9.96537         0.000190      0.000922      0.002386
      7.23844      2.50702      9.96498         0.000979      0.001033      0.003018
      2.91424      1.68608     14.84475        -0.000228      0.001809      0.000432
      7.24830      4.18833     14.64275        -0.000968      0.000049      0.000180
      5.81193      1.68363     14.64103         0.001973      0.002527      0.000736
      4.36246      4.19585     14.64081         0.002628      0.001429      0.000756
      2.92381      1.81219     18.04160        -0.004571     -0.007500      0.013097
      2.92780      1.73536     16.88805         0.005555     -0.000601     -0.018875
 -----------------------------------------------------------------------------------
    total drift:                               -0.002608     -0.005963     -0.014977


--------------------------------------------------------------------------------------------------------



  FREE ENERGIE OF THE ION-ELECTRON SYSTEM (eV)
  ---------------------------------------------------
  free  energy   TOTEN  =       -56.20973673 eV

  energy  without entropy=      -56.19189642  energy(sigma->0) =      -56.20081657
 


--------------------------------------------------------------------------------------------------------


    POTLOK:  cpu time    0.0433: real time    0.0435


--------------------------------------------------------------------------------------------------------


 writing wavefunctions
     LOOP+:  cpu time   94.7725: real time   95.8076
    4ORBIT:  cpu time    0.0000: real time    0.0000

 total amount of memory used by VASP MPI-rank0   214819. kBytes
=======================================================================

   base      :      30000. kBytes
   nonl-proj :     108819. kBytes
   fftplans  :       3897. kBytes
   grid      :       7690. kBytes
   one-center:         31. kBytes
   wavefun   :      64382. kBytes
 
  
  
 General timing and accounting informations for this job:
 ========================================================
  
                  Total CPU time used (sec):      106.557
                            User time (sec):      101.069
                          System time (sec):        5.488
                         Elapsed time (sec):      107.900
  
                   Maximum memory used (kb):      272460.
                   Average memory used (kb):           0.
  
                          Minor page faults:        48701
                          Major page faults:            0
                 Voluntary context switches:         1955
