 vasp.5.4.4.18Apr17-6-g9f103f2a35 (build Aug 15 2018 17:53:46) complex          
  
 executed on        TETRALITH-B01 date 2020.10.26  11:58:51
 running on   32 total cores
 distrk:  each k-point on   32 cores,    1 groups
 distr:  one band on NCORES_PER_BAND=   8 cores,    4 groups


--------------------------------------------------------------------------------------------------------


 INCAR:
 POTCAR:    PAW_PBE Pd 04Jan2005                  
 POTCAR:    PAW_PBE Au 04Oct2007                  
 POTCAR:    PAW_PBE O 08Apr2002                   
 POTCAR:    PAW_PBE Pd 04Jan2005                  
   VRHFIN =Pd : s1 d9                                                           
   LEXCH  = PE                                                                  
   EATOM  =   809.7530 eV,   59.5152 Ry                                         
                                                                                
   TITEL  = PAW_PBE Pd 04Jan2005                                                
   LULTRA =        F    use ultrasoft PP ?                                      
   IUNSCR =        1    unscreen: 0-lin 1-nonlin 2-no                           
   RPACOR =    2.000    partial core radius                                     
   POMASS =  106.420; ZVAL   =   10.000    mass and valenz                      
   RCORE  =    2.600    outmost cutoff radius                                   
   RWIGS  =    2.710; RWIGS  =    1.434    wigner-seitz radius (au A)           
   ENMAX  =  250.925; ENMIN  =  188.194 eV                                      
   ICORE  =        3    local potential                                         
   LCOR   =        T    correct aug charges                                     
   LPAW   =        T    paw PP                                                  
   EAUG   =  416.230                                                            
   DEXC   =    0.000                                                            
   RMAX   =    2.653    core radius for proj-oper                               
   RAUG   =    1.300    factor for augmentation sphere                          
   RDEP   =    2.734    radius for radial grids                                 
   RDEPT  =    2.103    core radius for aug-charge                              
                                                                                
   Atomic configuration                                                         
   12 entries                                                                   
     n  l   j            E        occ.                                          
     1  0  0.50    -24164.6631   2.0000                                         
     2  0  0.50     -3530.9218   2.0000                                         
     2  1  1.50     -3165.6822   6.0000                                         
     3  0  0.50      -639.4577   2.0000                                         
     3  1  1.50      -519.4532   6.0000                                         
     3  2  2.50      -328.9757  10.0000                                         
     4  0  0.50       -88.7014   2.0000                                         
     4  1  1.50       -54.4540   6.0000                                         
     4  2  2.50        -6.6878   9.0000                                         
     5  0  0.50        -4.3543   1.0000                                         
     5  1  0.50        -1.3606   0.0000                                         
     4  3  2.50        -1.3606   0.0000                                         
   Description                                                                  
     l       E           TYP  RCUT    TYP  RCUT                                 
     2     -6.6878251     23  2.400                                             
     2     -8.0484077     23  2.400                                             
     0     -4.3542939     23  2.400                                             
     0      4.3406793     23  2.400                                             
     1     -4.0817478     23  2.600                                             
     1     15.8380318     23  2.600                                             
     3     -4.0817478     23  2.400                                             
  local pseudopotential read in
  partial core-charges read in
  partial kinetic energy density read in
  atomic valenz-charges read in
  non local Contribution for L=           2  read in
    real space projection operators read in
  non local Contribution for L=           2  read in
    real space projection operators read in
  non local Contribution for L=           0  read in
    real space projection operators read in
  non local Contribution for L=           0  read in
    real space projection operators read in
  non local Contribution for L=           1  read in
    real space projection operators read in
  non local Contribution for L=           1  read in
    real space projection operators read in
    PAW grid and wavefunctions read in
 
   number of l-projection  operators is LMAX  =           6
   number of lm-projection operators is LMMAX =          18
 
 POTCAR:    PAW_PBE Au 04Oct2007                  
   VRHFIN =Au: s1d10                                                            
   LEXCH  = PE                                                                  
   EATOM  =   926.0867 eV,   68.0654 Ry                                         
                                                                                
   TITEL  = PAW_PBE Au 04Oct2007                                                
   LULTRA =        F    use ultrasoft PP ?                                      
   IUNSCR =        1    unscreen: 0-lin 1-nonlin 2-no                           
   RPACOR =    2.330    partial core radius                                     
   POMASS =  196.966; ZVAL   =   11.000    mass and valenz                      
   RCORE  =    2.500    outmost cutoff radius                                   
   RWIGS  =    2.840; RWIGS  =    1.503    wigner-seitz radius (au A)           
   ENMAX  =  229.943; ENMIN  =  172.457 eV                                      
   ICORE  =        3    local potential                                         
   LCOR   =        T    correct aug charges                                     
   LPAW   =        T    paw PP                                                  
   EAUG   =  356.670                                                            
   DEXC   =    0.000                                                            
   RMAX   =    2.562    core radius for proj-oper                               
   RAUG   =    1.300    factor for augmentation sphere                          
   RDEP   =    2.598    radius for radial grids                                 
   RDEPT  =    2.193    core radius for aug-charge                              
                                                                                
   Atomic configuration                                                         
   16 entries                                                                   
     n  l   j            E        occ.                                          
     1  0  0.50    -80748.5001   2.0000                                         
     2  0  0.50    -14244.7466   2.0000                                         
     2  1  1.50    -12310.9591   6.0000                                         
     3  0  0.50     -3362.1768   2.0000                                         
     3  1  1.50     -2801.5463   6.0000                                         
     3  2  2.50     -2203.8206  10.0000                                         
     4  0  0.50      -729.8168   2.0000                                         
     4  1  1.50      -546.0527   6.0000                                         
     4  2  2.50      -325.7302  10.0000                                         
     4  3  3.50       -81.1472  14.0000                                         
     5  0  0.50      -108.3201   2.0000                                         
     5  1  1.50       -59.7479   6.0000                                         
     5  2  2.50        -6.8783  10.0000                                         
     6  0  0.50        -5.7602   1.0000                                         
     6  1  1.50        -6.8029   0.0000                                         
     5  3  2.50        -1.3606   0.0000                                         
   Description                                                                  
     l       E           TYP  RCUT    TYP  RCUT                                 
     2     -6.8782861     23  2.500                                             
     2     -8.2388687     23  2.500                                             
     0     -5.7601759     23  2.500                                             
     0     -0.8493231     23  2.500                                             
     1     -2.7211652     23  2.500                                             
     1     27.2116520     23  2.500                                             
     3     -1.3605826     23  2.500                                             
  local pseudopotential read in
  partial core-charges read in
  partial kinetic energy density read in
  atomic valenz-charges read in
  non local Contribution for L=           2  read in
    real space projection operators read in
  non local Contribution for L=           2  read in
    real space projection operators read in
  non local Contribution for L=           0  read in
    real space projection operators read in
  non local Contribution for L=           0  read in
    real space projection operators read in
  non local Contribution for L=           1  read in
    real space projection operators read in
  non local Contribution for L=           1  read in
    real space projection operators read in
    PAW grid and wavefunctions read in
 
   number of l-projection  operators is LMAX  =           6
   number of lm-projection operators is LMMAX =          18
 
 POTCAR:    PAW_PBE O 08Apr2002                   
   VRHFIN =O: s2p4                                                              
   LEXCH  = PE                                                                  
   EATOM  =   432.3788 eV,   31.7789 Ry                                         
                                                                                
   TITEL  = PAW_PBE O 08Apr2002                                                 
   LULTRA =        F    use ultrasoft PP ?                                      
   IUNSCR =        1    unscreen: 0-lin 1-nonlin 2-no                           
   RPACOR =    1.200    partial core radius                                     
   POMASS =   16.000; ZVAL   =    6.000    mass and valenz                      
   RCORE  =    1.520    outmost cutoff radius                                   
   RWIGS  =    1.550; RWIGS  =    0.820    wigner-seitz radius (au A)           
   ENMAX  =  400.000; ENMIN  =  300.000 eV                                      
   ICORE  =        2    local potential                                         
   LCOR   =        T    correct aug charges                                     
   LPAW   =        T    paw PP                                                  
   EAUG   =  605.392                                                            
   DEXC   =    0.000                                                            
   RMAX   =    1.553    core radius for proj-oper                               
   RAUG   =    1.300    factor for augmentation sphere                          
   RDEP   =    1.550    radius for radial grids                                 
   RDEPT  =    1.329    core radius for aug-charge                              
                                                                                
   Atomic configuration                                                         
    4 entries                                                                   
     n  l   j            E        occ.                                          
     1  0  0.50      -514.6923   2.0000                                         
     2  0  0.50       -23.9615   2.0000                                         
     2  1  0.50        -9.0305   4.0000                                         
     3  2  1.50        -9.5241   0.0000                                         
   Description                                                                  
     l       E           TYP  RCUT    TYP  RCUT                                 
     0    -23.9615318     23  1.200                                             
     0     -9.5240782     23  1.200                                             
     1     -9.0304911     23  1.520                                             
     1      8.1634956     23  1.520                                             
     2     -9.5240782      7  1.500                                             
  local pseudopotential read in
  partial core-charges read in
  partial kinetic energy density read in
  kinetic energy density of atom read in
  atomic valenz-charges read in
  non local Contribution for L=           0  read in
    real space projection operators read in
  non local Contribution for L=           0  read in
    real space projection operators read in
  non local Contribution for L=           1  read in
    real space projection operators read in
  non local Contribution for L=           1  read in
    real space projection operators read in
    PAW grid and wavefunctions read in
 
   number of l-projection  operators is LMAX  =           4
   number of lm-projection operators is LMMAX =           8
 

 ----------------------------------------------------------------------------- 
|                                                                             |
|  ADVICE TO THIS USER RUNNING 'VASP/VAMP'   (HEAR YOUR MASTER'S VOICE ...):  |
|                                                                             |
|      You enforced a specific xc-type in the INCAR file,                     |
|      a different type was found on the POTCAR file                          |
|          I HOPE YOU KNOW, WHAT YOU ARE  DOING                               |
|                                                                             |
 ----------------------------------------------------------------------------- 

  PAW_PBE Pd 04Jan2005                  :
 energy of atom  1       EATOM= -809.7530
 kinetic energy error for atom=    0.0051 (will be added to EATOM!!)
  PAW_PBE Au 04Oct2007                  :
 energy of atom  2       EATOM= -926.0867
 kinetic energy error for atom=    0.0057 (will be added to EATOM!!)
  PAW_PBE O 08Apr2002                   :
 energy of atom  3       EATOM= -432.3788
 kinetic energy error for atom=    0.0389 (will be added to EATOM!!)
 
 
 POSCAR: Pd Au  O                                
  positions in cartesian coordinates
  No initial velocities read in
 exchange correlation table for  LEXCH =        9
   RHO(1)=    0.500       N(1)  =     2000
   RHO(2)=  100.500       N(2)  =     4000
 


--------------------------------------------------------------------------------------------------------


 ion  position               nearest neighbor table
   1  0.997  0.003  0.408-   4 2.79   5 2.79   2 2.86   7 2.86   6 2.89   8 2.90   8 2.90   2 2.94
                             7 2.94
   2  0.503  0.496  0.408-   5 2.79   3 2.79   7 2.86   1 2.86   6 2.90   8 2.90   8 2.90   1 2.94
                             7 2.94
   3  0.674  0.663  0.498-   2 2.79  12 2.81   4 2.85   5 2.85   7 2.85   8 2.88   6 2.89   6 2.91
                             5 2.94   4 2.95  10 2.97  11 2.99
   4  0.166  0.171  0.498-   1 2.79  12 2.82   7 2.85   3 2.85   5 2.85   8 2.89   6 2.89   6 2.91
                             5 2.94   3 2.95   9 2.97  11 2.98
   5  0.166  0.663  0.498-   2 2.79   1 2.79  12 2.80   3 2.85   4 2.85   8 2.88   6 2.90   6 2.90
                             4 2.94   3 2.94  10 2.98   9 2.99
   6  0.670  0.166  0.504-  11 2.79   9 2.81  10 2.81   1 2.89   4 2.89   3 2.89   2 2.90   5 2.90
                             5 2.90   3 2.91   4 2.91   7 2.96
   7  0.503  0.003  0.405-   4 2.85   3 2.85   2 2.86   1 2.86   8 2.90   8 2.90   1 2.94   2 2.94
                             6 2.96
   8  0.001  0.500  0.402-   3 2.88   5 2.88   4 2.89   7 2.90   7 2.90   2 2.90   1 2.90   1 2.90
                             2 2.90
   9  0.347  0.323  0.597-  13 2.15  10 2.79  11 2.80   6 2.81  12 2.90  12 2.91   4 2.97   5 2.99
                            11 3.00  10 3.00
  10  0.829  0.842  0.597-  13 2.15   9 2.79  11 2.79   6 2.81  12 2.91  12 2.91   3 2.97   5 2.98
                            11 3.00   9 3.00
  11  0.829  0.323  0.597-  13 2.14   6 2.79  10 2.79   9 2.80  12 2.90  12 2.91   4 2.98   3 2.99
                             9 3.00  10 3.00
  12  0.335  0.830  0.588-   5 2.80   3 2.81   4 2.82   9 2.90  11 2.90  10 2.91  10 2.91   9 2.91
                            11 2.91
  13  0.001  0.495  0.648-  11 2.14   9 2.15  10 2.15
 
  LATTYP: Found a hexagonal cell.
 ALAT       =     5.7950627388
 C/A-ratio  =     4.2677102953
  
  Lattice vectors:
  
 A1 = (   2.8975313694,  -5.0186715483,   0.0000000000)
 A2 = (  -5.7950627388,   0.0000000000,   0.0000000000)
 A3 = (   0.0000000000,   0.0000000000, -24.7316489125)


Analysis of symmetry for initial positions (statically):
=====================================================================
 Subroutine PRICEL returns:
 Original cell was already a primitive cell.
 

 Routine SETGRP: Setting up the symmetry group for a 
 hexagonal supercell.


 Subroutine GETGRP returns: Found  1 space group operations
 (whereof  1 operations were pure point group operations)
 out of a pool of 24 trial point group operations.


The static configuration has the point symmetry C_1 .


Analysis of symmetry for dynamics (positions and initial velocities):
=====================================================================
 Subroutine PRICEL returns:
 Original cell was already a primitive cell.
 

 Routine SETGRP: Setting up the symmetry group for a 
 hexagonal supercell.


 Subroutine GETGRP returns: Found  1 space group operations
 (whereof  1 operations were pure point group operations)
 out of a pool of 24 trial point group operations.


The dynamic configuration has the point symmetry C_1 .


 Subroutine INISYM returns: Found  1 space group operations
 (whereof  1 operations are pure point group operations),
 and found     1 'primitive' translations

 
 
 KPOINTS: KPOINTS created by Atomic Simulation Env

Automatic generation of k-mesh.
Space group operators:
 irot       det(A)        alpha          n_x          n_y          n_z        tau_x        tau_y        tau_z
    1     1.000000     0.000000     1.000000     0.000000     0.000000     0.000000     0.000000     0.000000
 
 Subroutine IBZKPT returns following result:
 ===========================================
 
 Found     96 irreducible k-points:
 
 Following reciprocal coordinates:
            Coordinates               Weight
  0.062500  0.062500  0.000000     16.000000
  0.000000  0.062500  0.000000     16.000000
 -0.062500  0.000000  0.000000     16.000000
  0.187500  0.062500  0.000000     16.000000
  0.125000  0.187500  0.000000     16.000000
 -0.062500  0.125000  0.000000     16.000000
  0.125000 -0.062500  0.000000     16.000000
 -0.062500 -0.187500  0.000000     16.000000
 -0.187500 -0.125000  0.000000     16.000000
  0.312500  0.062500  0.000000     16.000000
  0.250000  0.312500  0.000000     16.000000
 -0.062500  0.250000  0.000000     16.000000
  0.250000 -0.062500  0.000000     16.000000
 -0.062500 -0.312500  0.000000     16.000000
 -0.312500 -0.250000  0.000000     16.000000
  0.437500  0.062500  0.000000     16.000000
  0.375000  0.437500  0.000000     16.000000
 -0.062500  0.375000  0.000000     16.000000
  0.375000 -0.062500  0.000000     16.000000
 -0.062500 -0.437500  0.000000     16.000000
 -0.437500 -0.375000  0.000000     16.000000
 -0.437500  0.062500  0.000000     16.000000
  0.500000 -0.437500  0.000000     16.000000
 -0.062500  0.500000  0.000000     16.000000
  0.500000 -0.062500  0.000000     16.000000
 -0.062500  0.437500  0.000000     16.000000
  0.437500  0.500000  0.000000     16.000000
 -0.312500  0.062500  0.000000     16.000000
 -0.375000 -0.312500  0.000000     16.000000
 -0.062500 -0.375000  0.000000     16.000000
 -0.375000 -0.062500  0.000000     16.000000
 -0.062500  0.312500  0.000000     16.000000
  0.312500  0.375000  0.000000     16.000000
 -0.187500  0.062500  0.000000     16.000000
 -0.250000 -0.187500  0.000000     16.000000
 -0.062500 -0.250000  0.000000     16.000000
 -0.250000 -0.062500  0.000000     16.000000
 -0.062500  0.187500  0.000000     16.000000
  0.187500  0.250000  0.000000     16.000000
 -0.062500  0.062500  0.000000     16.000000
 -0.125000 -0.062500  0.000000     16.000000
 -0.062500 -0.125000  0.000000     16.000000
  0.187500  0.187500  0.000000     16.000000
  0.000000  0.187500  0.000000     16.000000
 -0.187500  0.000000  0.000000     16.000000
  0.312500  0.187500  0.000000     16.000000
  0.125000  0.312500  0.000000     16.000000
 -0.187500  0.125000  0.000000     16.000000
  0.125000 -0.187500  0.000000     16.000000
 -0.187500 -0.312500  0.000000     16.000000
 -0.312500 -0.125000  0.000000     16.000000
  0.437500  0.187500  0.000000     16.000000
  0.250000  0.437500  0.000000     16.000000
 -0.187500  0.250000  0.000000     16.000000
  0.250000 -0.187500  0.000000     16.000000
 -0.187500 -0.437500  0.000000     16.000000
 -0.437500 -0.250000  0.000000     16.000000
 -0.437500  0.187500  0.000000     16.000000
  0.375000 -0.437500  0.000000     16.000000
 -0.187500  0.375000  0.000000     16.000000
  0.375000 -0.187500  0.000000     16.000000
 -0.187500  0.437500  0.000000     16.000000
  0.437500 -0.375000  0.000000     16.000000
 -0.312500  0.187500  0.000000     16.000000
  0.500000 -0.312500  0.000000     16.000000
 -0.187500  0.500000  0.000000     16.000000
  0.500000 -0.187500  0.000000     16.000000
 -0.187500  0.312500  0.000000     16.000000
  0.312500  0.500000  0.000000     16.000000
 -0.187500  0.187500  0.000000     16.000000
 -0.375000 -0.187500  0.000000     16.000000
 -0.187500 -0.375000  0.000000     16.000000
  0.312500  0.312500  0.000000     16.000000
  0.000000  0.312500  0.000000     16.000000
 -0.312500  0.000000  0.000000     16.000000
  0.437500  0.312500  0.000000     16.000000
  0.125000  0.437500  0.000000     16.000000
 -0.312500  0.125000  0.000000     16.000000
  0.125000 -0.312500  0.000000     16.000000
 -0.312500 -0.437500  0.000000     16.000000
 -0.437500 -0.125000  0.000000     16.000000
 -0.437500  0.312500  0.000000     16.000000
  0.250000 -0.437500  0.000000     16.000000
 -0.312500  0.250000  0.000000     16.000000
  0.250000 -0.312500  0.000000     16.000000
 -0.312500  0.437500  0.000000     16.000000
  0.437500 -0.250000  0.000000     16.000000
 -0.312500  0.312500  0.000000     16.000000
  0.375000 -0.312500  0.000000     16.000000
 -0.312500  0.375000  0.000000     16.000000
  0.437500  0.437500  0.000000     16.000000
  0.000000  0.437500  0.000000     16.000000
 -0.437500  0.000000  0.000000     16.000000
 -0.437500  0.437500  0.000000     16.000000
  0.125000 -0.437500  0.000000     16.000000
 -0.437500  0.125000  0.000000     16.000000
 
 Following cartesian coordinates:
            Coordinates               Weight
  0.010785  0.006227  0.000000     16.000000
  0.000000  0.012453  0.000000     16.000000
 -0.010785  0.006227  0.000000     16.000000
  0.032355 -0.006227  0.000000     16.000000
  0.021570  0.024907  0.000000     16.000000
 -0.010785  0.031134  0.000000     16.000000
  0.021570 -0.024907  0.000000     16.000000
 -0.010785 -0.031134  0.000000     16.000000
 -0.032355 -0.006227  0.000000     16.000000
  0.053925 -0.018680  0.000000     16.000000
  0.043140  0.037360  0.000000     16.000000
 -0.010785  0.056041  0.000000     16.000000
  0.043140 -0.037360  0.000000     16.000000
 -0.010785 -0.056041  0.000000     16.000000
 -0.053925 -0.018680  0.000000     16.000000
  0.075495 -0.031134  0.000000     16.000000
  0.064710  0.049814  0.000000     16.000000
 -0.010785  0.080948  0.000000     16.000000
  0.064710 -0.049814  0.000000     16.000000
 -0.010785 -0.080948  0.000000     16.000000
 -0.075495 -0.031134  0.000000     16.000000
 -0.075495  0.056041  0.000000     16.000000
  0.086280 -0.136988  0.000000     16.000000
 -0.010785  0.105855  0.000000     16.000000
  0.086280 -0.062267  0.000000     16.000000
 -0.010785  0.093401  0.000000     16.000000
  0.075495  0.056041  0.000000     16.000000
 -0.053925  0.043587  0.000000     16.000000
 -0.064710 -0.024907  0.000000     16.000000
 -0.010785 -0.068494  0.000000     16.000000
 -0.064710  0.024907  0.000000     16.000000
 -0.010785  0.068494  0.000000     16.000000
  0.053925  0.043587  0.000000     16.000000
 -0.032355  0.031134  0.000000     16.000000
 -0.043140 -0.012453  0.000000     16.000000
 -0.010785 -0.043587  0.000000     16.000000
 -0.043140  0.012453  0.000000     16.000000
 -0.010785  0.043587  0.000000     16.000000
  0.032355  0.031134  0.000000     16.000000
 -0.010785  0.018680  0.000000     16.000000
 -0.021570 -0.000000  0.000000     16.000000
 -0.010785 -0.018680  0.000000     16.000000
  0.032355  0.018680  0.000000     16.000000
  0.000000  0.037360  0.000000     16.000000
 -0.032355  0.018680  0.000000     16.000000
  0.053925  0.006227  0.000000     16.000000
  0.021570  0.049814  0.000000     16.000000
 -0.032355  0.043587  0.000000     16.000000
  0.021570 -0.049814  0.000000     16.000000
 -0.032355 -0.043587  0.000000     16.000000
 -0.053925  0.006227  0.000000     16.000000
  0.075495 -0.006227  0.000000     16.000000
  0.043140  0.062267  0.000000     16.000000
 -0.032355  0.068494  0.000000     16.000000
  0.043140 -0.062267  0.000000     16.000000
 -0.032355 -0.068494  0.000000     16.000000
 -0.075495 -0.006227  0.000000     16.000000
 -0.075495  0.080948  0.000000     16.000000
  0.064710 -0.124535  0.000000     16.000000
 -0.032355  0.093401  0.000000     16.000000
  0.064710 -0.074721  0.000000     16.000000
 -0.032355  0.105855  0.000000     16.000000
  0.075495 -0.118308  0.000000     16.000000
 -0.053925  0.068494  0.000000     16.000000
  0.086280 -0.112081  0.000000     16.000000
 -0.032355  0.118308  0.000000     16.000000
  0.086280 -0.087174  0.000000     16.000000
 -0.032355  0.080948  0.000000     16.000000
  0.053925  0.068494  0.000000     16.000000
 -0.032355  0.056041  0.000000     16.000000
 -0.064710  0.000000  0.000000     16.000000
 -0.032355 -0.056041  0.000000     16.000000
  0.053925  0.031134  0.000000     16.000000
  0.000000  0.062267  0.000000     16.000000
 -0.053925  0.031134  0.000000     16.000000
  0.075495  0.018680  0.000000     16.000000
  0.021570  0.074721  0.000000     16.000000
 -0.053925  0.056041  0.000000     16.000000
  0.021570 -0.074721  0.000000     16.000000
 -0.053925 -0.056041  0.000000     16.000000
 -0.075495  0.018680  0.000000     16.000000
 -0.075495  0.105855  0.000000     16.000000
  0.043140 -0.112081  0.000000     16.000000
 -0.053925  0.080948  0.000000     16.000000
  0.043140 -0.087174  0.000000     16.000000
 -0.053925  0.118308  0.000000     16.000000
  0.075495 -0.093401  0.000000     16.000000
 -0.053925  0.093401  0.000000     16.000000
  0.064710 -0.099628  0.000000     16.000000
 -0.053925  0.105855  0.000000     16.000000
  0.075495  0.043587  0.000000     16.000000
  0.000000  0.087174  0.000000     16.000000
 -0.075495  0.043587  0.000000     16.000000
 -0.075495  0.130762  0.000000     16.000000
  0.021570 -0.099628  0.000000     16.000000
 -0.075495  0.068494  0.000000     16.000000
 


--------------------------------------------------------------------------------------------------------




 Dimension of arrays:
   k-points           NKPTS =     96   k-points in BZ     NKDIM =     96   number of bands    NBANDS=     80
   number of dos      NEDOS =    301   number of ions     NIONS =     13
   non local maximal  LDIM  =      6   non local SUM 2l+1 LMDIM =     18
   total plane-waves  NPLWV = 288000
   max r-space proj   IRMAX =      1   max aug-charges    IRDMAX=  24682
   dimension x,y,z NGX =    40 NGY =   40 NGZ =  180
   dimension x,y,z NGXF=    80 NGYF=   80 NGZF=  360
   support grid    NGXF=    80 NGYF=   80 NGZF=  360
   ions per type =               6   6   1
   NGX,Y,Z   is equivalent  to a cutoff of  11.48, 11.48, 12.10 a.u.
   NGXF,Y,Z  is equivalent  to a cutoff of  22.95, 22.95, 24.20 a.u.

 SYSTEM =  out                                     
 POSCAR =  Pd Au  O                                

 Startparameter for this run:
   NWRITE =      2    write-flag & timer
   PREC   = accura    normal or accurate (medium, high low for compatibility)
   ISTART =      1    job   : 0-new  1-cont  2-samecut
   ICHARG =      0    charge: 1-file 2-atom 10-const
   ISPIN  =      1    spin polarized calculation?
   LNONCOLLINEAR =      F non collinear calculations
   LSORBIT =      F    spin-orbit coupling
   INIWAV =      1    electr: 0-lowe 1-rand  2-diag
   LASPH  =      F    aspherical Exc in radial PAW
   METAGGA=      F    non-selfconsistent MetaGGA calc.

 Electronic Relaxation 1
   ENCUT  =  450.0 eV  33.07 Ry    5.75 a.u.  10.02 10.02 42.78*2*pi/ulx,y,z
   ENINI  =  450.0     initial cutoff
   ENAUG  =  605.4 eV  augmentation charge cutoff
   NELM   =    200;   NELMIN=  2; NELMDL=  0     # of ELM steps 
   EDIFF  = 0.1E-03   stopping-criterion for ELM
   LREAL  =      F    real-space projection
   NLSPLINE    = F    spline interpolate recip. space projectors
   LCOMPAT=      F    compatible to vasp.4.4
   GGA_COMPAT  = T    GGA compatible to vasp.4.4-vasp.4.6
   LMAXPAW     = -100 max onsite density
   LMAXMIX     =    2 max onsite mixed and CHGCAR
   VOSKOWN=      0    Vosko Wilk Nusair interpolation
   ROPT   =    0.00000   0.00000   0.00000
 Ionic relaxation
   EDIFFG = 0.1E-02   stopping-criterion for IOM
   NSW    =      0    number of steps for IOM
   NBLOCK =      1;   KBLOCK =      1    inner block; outer block 
   IBRION =     -1    ionic relax: 0-MD 1-quasi-New 2-CG
   NFREE  =      0    steps in history (QN), initial steepest desc. (CG)
   ISIF   =      2    stress and relaxation
   IWAVPR =     10    prediction:  0-non 1-charg 2-wave 3-comb
   ISYM   =      2    0-nonsym 1-usesym 2-fastsym
   LCORR  =      T    Harris-Foulkes like correction to forces

   POTIM  = 0.5000    time-step for ionic-motion
   TEIN   =    0.0    initial temperature
   TEBEG  =    0.0;   TEEND  =   0.0 temperature during run
   SMASS  =  -3.00    Nose mass-parameter (am)
   estimated Nose-frequenzy (Omega)   =  0.10E-29 period in steps =****** mass=  -0.767E-27a.u.
   SCALEE = 1.0000    scale energy and forces
   NPACO  =    256;   APACO  = 16.0  distance and # of slots for P.C.
   PSTRESS=    0.0 pullay stress

  Mass of Ions in am
   POMASS = 106.42196.97 16.00
  Ionic Valenz
   ZVAL   =  10.00 11.00  6.00
  Atomic Wigner-Seitz radii
   RWIGS  =  -1.00 -1.00 -1.00
  virtual crystal weights 
   VCA    =   1.00  1.00  1.00
   NELECT =     132.0000    total number of electrons
   NUPDOWN=      -1.0000    fix difference up-down

 DOS related values:
   EMIN   =  10.00;   EMAX   =-10.00  energy-range for DOS
   EFERMI =   0.00
   ISMEAR =     0;   SIGMA  =   0.05  broadening in eV -4-tet -1-fermi 0-gaus

 Electronic relaxation 2 (details)
   IALGO  =     68    algorithm
   LDIAG  =      T    sub-space diagonalisation (order eigenvalues)
   LSUBROT=      F    optimize rotation matrix (better conditioning)
   TURBO    =      0    0=normal 1=particle mesh
   IRESTART =      0    0=no restart 2=restart with 2 vectors
   NREBOOT  =      0    no. of reboots
   NMIN     =      0    reboot dimension
   EREF     =   0.00    reference energy to select bands
   IMIX   =      4    mixing-type and parameters
     AMIX     =   0.40;   BMIX     =  1.00
     AMIX_MAG =   1.60;   BMIX_MAG =  1.00
     AMIN     =   0.10
     WC   =   100.;   INIMIX=   1;  MIXPRE=   1;  MAXMIX= -45

 Intra band minimization:
   WEIMIN = 0.0000     energy-eigenvalue tresh-hold
   EBREAK =  0.31E-06  absolut break condition
   DEPER  =   0.30     relativ break condition  

   TIME   =   0.40     timestep for ELM

  volume/ion in A,a.u.               =      55.33       373.38
  Fermi-wavevector in a.u.,A,eV,Ry     =   0.930321  1.758052 11.775803  0.865497
  Thomas-Fermi vector in A             =   2.056697
 
 Write flags
   LWAVE        =      T    write WAVECAR
   LDOWNSAMPLE  =      F    k-point downsampling of WAVECAR
   LCHARG       =      T    write CHGCAR
   LVTOT        =      F    write LOCPOT, total local potential
   LVHAR        =      F    write LOCPOT, Hartree potential only
   LELF         =      F    write electronic localiz. function (ELF)
   LORBIT       =      0    0 simple, 1 ext, 2 COOP (PROOUT), +10 PAW based schemes


 Dipole corrections
   LMONO  =      F    monopole corrections only (constant potential shift)
   LDIPOL =      F    correct potential (dipole corrections)
   IDIPOL =      0    1-x, 2-y, 3-z, 4-all directions 
   EPSILON=  1.0000000 bulk dielectric constant

 Exchange correlation treatment:
   GGA     =    RP    GGA type
   LEXCH   =     9    internal setting for exchange type
   VOSKOWN=      0    Vosko Wilk Nusair interpolation
   LHFCALC =     F    Hartree Fock is set to
   LHFONE  =     F    Hartree Fock one center treatment
   AEXX    =    0.0000 exact exchange contribution

 Linear response parameters
   LEPSILON=     F    determine dielectric tensor
   LRPA    =     F    only Hartree local field effects (RPA)
   LNABLA  =     F    use nabla operator in PAW spheres
   LVEL    =     F    velocity operator in full k-point grid
   LINTERFAST=   F  fast interpolation
   KINTER  =     0    interpolate to denser k-point grid
   CSHIFT  =0.1000    complex shift for real part using Kramers Kronig
   OMEGAMAX=  -1.0    maximum frequency
   DEG_THRESHOLD= 0.2000000E-02 threshold for treating states as degnerate
   RTIME   =   -0.100 relaxation time in fs
  (WPLASMAI=    0.000 imaginary part of plasma frequency in eV, 0.658/RTIME)
   DFIELD  = 0.0000000 0.0000000 0.0000000 field for delta impulse in time
 
 Orbital magnetization related:
   ORBITALMAG=     F  switch on orbital magnetization
   LCHIMAG   =     F  perturbation theory with respect to B field
   DQ        =  0.001000  dq finite difference perturbation B field
   LLRAUG    =     F  two centre corrections for induced B field



--------------------------------------------------------------------------------------------------------


 Static calculation
 charge density and potential will be updated during run
 non-spin polarized calculation
 RMM-DIIS sequential band-by-band and
  variant of blocked Davidson during initial phase
 perform sub-space diagonalisation
    before iterative eigenvector-optimisation
 modified Broyden-mixing scheme, WC =      100.0
 initial mixing is a Kerker type mixing with AMIX =  0.4000 and BMIX =      1.0000
 Hartree-type preconditioning will be used
 using additional bands           14
 reciprocal scheme for non local part
 use partial core corrections
 calculate Harris-corrections to forces 
   (improved forces if not selfconsistent)
 use gradient corrections 
 use of overlap-Matrix (Vanderbilt PP)
 Gauss-broadening in eV      SIGMA  =   0.05


--------------------------------------------------------------------------------------------------------


  energy-cutoff  :      450.00
  volume of cell :      719.28
      direct lattice vectors                 reciprocal lattice vectors
     5.795062739  0.000000000  0.000000000     0.172560686 -0.099627958  0.000000000
     2.897531369  5.018671548  0.000000000     0.000000000  0.199255917  0.000000000
     0.000000000  0.000000000 24.731648912     0.000000000  0.000000000  0.040434021

  length of vectors
     5.795062739  5.795062739 24.731648912     0.199255917  0.199255917  0.040434021


 
 old parameters found on file WAVECAR:
  energy-cutoff  :      450.00
  volume of cell :      719.28
      direct lattice vectors                 reciprocal lattice vectors
     5.795062739  0.000000000  0.000000000     0.172560686 -0.099627958  0.000000000
     2.897531369  5.018671548  0.000000000     0.000000000  0.199255917  0.000000000
     0.000000000  0.000000000 24.731648912     0.000000000  0.000000000  0.040434021

  length of vectors

 
 k-points in units of 2pi/SCALE and weight: KPOINTS created by Atomic Simulation Env
   0.01078504  0.00622675  0.00000000       0.010
   0.00000000  0.01245349  0.00000000       0.010
  -0.01078504  0.00622675  0.00000000       0.010
   0.03235513 -0.00622675  0.00000000       0.010
   0.02157009  0.02490699  0.00000000       0.010
  -0.01078504  0.03113374  0.00000000       0.010
   0.02157009 -0.02490699  0.00000000       0.010
  -0.01078504 -0.03113374  0.00000000       0.010
  -0.03235513 -0.00622675  0.00000000       0.010
   0.05392521 -0.01868024  0.00000000       0.010
   0.04314017  0.03736048  0.00000000       0.010
  -0.01078504  0.05604073  0.00000000       0.010
   0.04314017 -0.03736048  0.00000000       0.010
  -0.01078504 -0.05604073  0.00000000       0.010
  -0.05392521 -0.01868024  0.00000000       0.010
   0.07549530 -0.03113374  0.00000000       0.010
   0.06471026  0.04981398  0.00000000       0.010
  -0.01078504  0.08094772  0.00000000       0.010
   0.06471026 -0.04981398  0.00000000       0.010
  -0.01078504 -0.08094772  0.00000000       0.010
  -0.07549530 -0.03113374  0.00000000       0.010
  -0.07549530  0.05604073  0.00000000       0.010
   0.08628034 -0.13698844  0.00000000       0.010
  -0.01078504  0.10585471  0.00000000       0.010
   0.08628034 -0.06226747  0.00000000       0.010
  -0.01078504  0.09340121  0.00000000       0.010
   0.07549530  0.05604073  0.00000000       0.010
  -0.05392521  0.04358723  0.00000000       0.010
  -0.06471026 -0.02490699  0.00000000       0.010
  -0.01078504 -0.06849422  0.00000000       0.010
  -0.06471026  0.02490699  0.00000000       0.010
  -0.01078504  0.06849422  0.00000000       0.010
   0.05392521  0.04358723  0.00000000       0.010
  -0.03235513  0.03113374  0.00000000       0.010
  -0.04314017 -0.01245349  0.00000000       0.010
  -0.01078504 -0.04358723  0.00000000       0.010
  -0.04314017  0.01245349  0.00000000       0.010
  -0.01078504  0.04358723  0.00000000       0.010
   0.03235513  0.03113374  0.00000000       0.010
  -0.01078504  0.01868024  0.00000000       0.010
  -0.02157009 -0.00000000  0.00000000       0.010
  -0.01078504 -0.01868024  0.00000000       0.010
   0.03235513  0.01868024  0.00000000       0.010
   0.00000000  0.03736048  0.00000000       0.010
  -0.03235513  0.01868024  0.00000000       0.010
   0.05392521  0.00622675  0.00000000       0.010
   0.02157009  0.04981398  0.00000000       0.010
  -0.03235513  0.04358723  0.00000000       0.010
   0.02157009 -0.04981398  0.00000000       0.010
  -0.03235513 -0.04358723  0.00000000       0.010
  -0.05392521  0.00622675  0.00000000       0.010
   0.07549530 -0.00622675  0.00000000       0.010
   0.04314017  0.06226747  0.00000000       0.010
  -0.03235513  0.06849422  0.00000000       0.010
   0.04314017 -0.06226747  0.00000000       0.010
  -0.03235513 -0.06849422  0.00000000       0.010
  -0.07549530 -0.00622675  0.00000000       0.010
  -0.07549530  0.08094772  0.00000000       0.010
   0.06471026 -0.12453495  0.00000000       0.010
  -0.03235513  0.09340121  0.00000000       0.010
   0.06471026 -0.07472097  0.00000000       0.010
  -0.03235513  0.10585471  0.00000000       0.010
   0.07549530 -0.11830820  0.00000000       0.010
  -0.05392521  0.06849422  0.00000000       0.010
   0.08628034 -0.11208145  0.00000000       0.010
  -0.03235513  0.11830820  0.00000000       0.010
   0.08628034 -0.08717446  0.00000000       0.010
  -0.03235513  0.08094772  0.00000000       0.010
   0.05392521  0.06849422  0.00000000       0.010
  -0.03235513  0.05604073  0.00000000       0.010
  -0.06471026  0.00000000  0.00000000       0.010
  -0.03235513 -0.05604073  0.00000000       0.010
   0.05392521  0.03113374  0.00000000       0.010
   0.00000000  0.06226747  0.00000000       0.010
  -0.05392521  0.03113374  0.00000000       0.010
   0.07549530  0.01868024  0.00000000       0.010
   0.02157009  0.07472097  0.00000000       0.010
  -0.05392521  0.05604073  0.00000000       0.010
   0.02157009 -0.07472097  0.00000000       0.010
  -0.05392521 -0.05604073  0.00000000       0.010
  -0.07549530  0.01868024  0.00000000       0.010
  -0.07549530  0.10585471  0.00000000       0.010
   0.04314017 -0.11208145  0.00000000       0.010
  -0.05392521  0.08094772  0.00000000       0.010
   0.04314017 -0.08717446  0.00000000       0.010
  -0.05392521  0.11830820  0.00000000       0.010
   0.07549530 -0.09340121  0.00000000       0.010
  -0.05392521  0.09340121  0.00000000       0.010
   0.06471026 -0.09962796  0.00000000       0.010
  -0.05392521  0.10585471  0.00000000       0.010
   0.07549530  0.04358723  0.00000000       0.010
   0.00000000  0.08717446  0.00000000       0.010
  -0.07549530  0.04358723  0.00000000       0.010
  -0.07549530  0.13076170  0.00000000       0.010
   0.02157009 -0.09962796  0.00000000       0.010
  -0.07549530  0.06849422  0.00000000       0.010
 
 k-points in reciprocal lattice and weights: KPOINTS created by Atomic Simulation Env
   0.06250000  0.06250000  0.00000000       0.010
   0.00000000  0.06250000  0.00000000       0.010
  -0.06250000  0.00000000  0.00000000       0.010
   0.18750000  0.06250000  0.00000000       0.010
   0.12500000  0.18750000  0.00000000       0.010
  -0.06250000  0.12500000  0.00000000       0.010
   0.12500000 -0.06250000  0.00000000       0.010
  -0.06250000 -0.18750000  0.00000000       0.010
  -0.18750000 -0.12500000  0.00000000       0.010
   0.31250000  0.06250000  0.00000000       0.010
   0.25000000  0.31250000  0.00000000       0.010
  -0.06250000  0.25000000  0.00000000       0.010
   0.25000000 -0.06250000  0.00000000       0.010
  -0.06250000 -0.31250000  0.00000000       0.010
  -0.31250000 -0.25000000  0.00000000       0.010
   0.43750000  0.06250000  0.00000000       0.010
   0.37500000  0.43750000  0.00000000       0.010
  -0.06250000  0.37500000  0.00000000       0.010
   0.37500000 -0.06250000  0.00000000       0.010
  -0.06250000 -0.43750000  0.00000000       0.010
  -0.43750000 -0.37500000  0.00000000       0.010
  -0.43750000  0.06250000  0.00000000       0.010
   0.50000000 -0.43750000  0.00000000       0.010
  -0.06250000  0.50000000  0.00000000       0.010
   0.50000000 -0.06250000  0.00000000       0.010
  -0.06250000  0.43750000  0.00000000       0.010
   0.43750000  0.50000000  0.00000000       0.010
  -0.31250000  0.06250000  0.00000000       0.010
  -0.37500000 -0.31250000  0.00000000       0.010
  -0.06250000 -0.37500000  0.00000000       0.010
  -0.37500000 -0.06250000  0.00000000       0.010
  -0.06250000  0.31250000  0.00000000       0.010
   0.31250000  0.37500000  0.00000000       0.010
  -0.18750000  0.06250000  0.00000000       0.010
  -0.25000000 -0.18750000  0.00000000       0.010
  -0.06250000 -0.25000000  0.00000000       0.010
  -0.25000000 -0.06250000  0.00000000       0.010
  -0.06250000  0.18750000  0.00000000       0.010
   0.18750000  0.25000000  0.00000000       0.010
  -0.06250000  0.06250000  0.00000000       0.010
  -0.12500000 -0.06250000  0.00000000       0.010
  -0.06250000 -0.12500000  0.00000000       0.010
   0.18750000  0.18750000  0.00000000       0.010
   0.00000000  0.18750000  0.00000000       0.010
  -0.18750000  0.00000000  0.00000000       0.010
   0.31250000  0.18750000  0.00000000       0.010
   0.12500000  0.31250000  0.00000000       0.010
  -0.18750000  0.12500000  0.00000000       0.010
   0.12500000 -0.18750000  0.00000000       0.010
  -0.18750000 -0.31250000  0.00000000       0.010
  -0.31250000 -0.12500000  0.00000000       0.010
   0.43750000  0.18750000  0.00000000       0.010
   0.25000000  0.43750000  0.00000000       0.010
  -0.18750000  0.25000000  0.00000000       0.010
   0.25000000 -0.18750000  0.00000000       0.010
  -0.18750000 -0.43750000  0.00000000       0.010
  -0.43750000 -0.25000000  0.00000000       0.010
  -0.43750000  0.18750000  0.00000000       0.010
   0.37500000 -0.43750000  0.00000000       0.010
  -0.18750000  0.37500000  0.00000000       0.010
   0.37500000 -0.18750000  0.00000000       0.010
  -0.18750000  0.43750000  0.00000000       0.010
   0.43750000 -0.37500000  0.00000000       0.010
  -0.31250000  0.18750000  0.00000000       0.010
   0.50000000 -0.31250000  0.00000000       0.010
  -0.18750000  0.50000000  0.00000000       0.010
   0.50000000 -0.18750000  0.00000000       0.010
  -0.18750000  0.31250000  0.00000000       0.010
   0.31250000  0.50000000  0.00000000       0.010
  -0.18750000  0.18750000  0.00000000       0.010
  -0.37500000 -0.18750000  0.00000000       0.010
  -0.18750000 -0.37500000  0.00000000       0.010
   0.31250000  0.31250000  0.00000000       0.010
   0.00000000  0.31250000  0.00000000       0.010
  -0.31250000  0.00000000  0.00000000       0.010
   0.43750000  0.31250000  0.00000000       0.010
   0.12500000  0.43750000  0.00000000       0.010
  -0.31250000  0.12500000  0.00000000       0.010
   0.12500000 -0.31250000  0.00000000       0.010
  -0.31250000 -0.43750000  0.00000000       0.010
  -0.43750000 -0.12500000  0.00000000       0.010
  -0.43750000  0.31250000  0.00000000       0.010
   0.25000000 -0.43750000  0.00000000       0.010
  -0.31250000  0.25000000  0.00000000       0.010
   0.25000000 -0.31250000  0.00000000       0.010
  -0.31250000  0.43750000  0.00000000       0.010
   0.43750000 -0.25000000  0.00000000       0.010
  -0.31250000  0.31250000  0.00000000       0.010
   0.37500000 -0.31250000  0.00000000       0.010
  -0.31250000  0.37500000  0.00000000       0.010
   0.43750000  0.43750000  0.00000000       0.010
   0.00000000  0.43750000  0.00000000       0.010
  -0.43750000  0.00000000  0.00000000       0.010
  -0.43750000  0.43750000  0.00000000       0.010
   0.12500000 -0.43750000  0.00000000       0.010
  -0.43750000  0.12500000  0.00000000       0.010
 
 position of ions in fractional coordinates (direct lattice) 
   0.99658515  0.00251640  0.40806254
   0.50317261  0.49587348  0.40802184
   0.67399478  0.66270555  0.49760091
   0.16556947  0.17077294  0.49771866
   0.16567423  0.66319828  0.49757458
   0.66969481  0.16643792  0.50419982
   0.50316171  0.00267647  0.40508811
   0.00089315  0.50034714  0.40198553
   0.34673216  0.32347008  0.59678280
   0.82895084  0.84154232  0.59678842
   0.82928433  0.32346693  0.59690811
   0.33482047  0.82978160  0.58820093
   0.00120019  0.49542506  0.64801206
 
 position of ions in cartesian coordinates  (Angst):
   5.78256483  0.01262899 10.09205953
   4.35272579  2.48862615 10.09105298
   5.82605215  3.32590148 12.30649106
   1.45430541  0.85705332 12.30940312
   2.88173037  3.32837434 12.30583972
   4.36318253  0.83529726 12.46969298
   2.92360887  0.01343233 10.01849696
   1.45494743  2.51107797  9.94176496
   2.94659934  1.62339008 14.75942272
   7.24221736  4.22342447 14.75956173
   5.74301033  1.62337429 14.76252176
   4.34462383  4.16440131 14.54717888
   1.44246483  2.48637566 16.02640688
 


--------------------------------------------------------------------------------------------------------


 k-point  1 :   0.0625 0.0625 0.0000  plane waves:   15521
 k-point  2 :   0.0000 0.0625 0.0000  plane waves:   15521
 k-point  3 :  -0.0625 0.0000 0.0000  plane waves:   15521
 k-point  4 :   0.1875 0.0625 0.0000  plane waves:   15547
 k-point  5 :   0.1250 0.1875 0.0000  plane waves:   15547
 k-point  6 :  -0.0625 0.1250 0.0000  plane waves:   15547
 k-point  7 :   0.1250-0.0625 0.0000  plane waves:   15547
 k-point  8 :  -0.0625-0.1875 0.0000  plane waves:   15547
 k-point  9 :  -0.1875-0.1250 0.0000  plane waves:   15547
 k-point 10 :   0.3125 0.0625 0.0000  plane waves:   15568
 k-point 11 :   0.2500 0.3125 0.0000  plane waves:   15568
 k-point 12 :  -0.0625 0.2500 0.0000  plane waves:   15568
 k-point 13 :   0.2500-0.0625 0.0000  plane waves:   15568
 k-point 14 :  -0.0625-0.3125 0.0000  plane waves:   15568
 k-point 15 :  -0.3125-0.2500 0.0000  plane waves:   15568
 k-point 16 :   0.4375 0.0625 0.0000  plane waves:   15609
 k-point 17 :   0.3750 0.4375 0.0000  plane waves:   15609
 k-point 18 :  -0.0625 0.3750 0.0000  plane waves:   15609
 k-point 19 :   0.3750-0.0625 0.0000  plane waves:   15609
 k-point 20 :  -0.0625-0.4375 0.0000  plane waves:   15609
 k-point 21 :  -0.4375-0.3750 0.0000  plane waves:   15609
 k-point 22 :  -0.4375 0.0625 0.0000  plane waves:   15598
 k-point 23 :   0.5000-0.4375 0.0000  plane waves:   15598
 k-point 24 :  -0.0625 0.5000 0.0000  plane waves:   15598
 k-point 25 :   0.5000-0.0625 0.0000  plane waves:   15598
 k-point 26 :  -0.0625 0.4375 0.0000  plane waves:   15598
 k-point 27 :   0.4375 0.5000 0.0000  plane waves:   15598
 k-point 28 :  -0.3125 0.0625 0.0000  plane waves:   15595
 k-point 29 :  -0.3750-0.3125 0.0000  plane waves:   15595
 k-point 30 :  -0.0625-0.3750 0.0000  plane waves:   15595
 k-point 31 :  -0.3750-0.0625 0.0000  plane waves:   15595
 k-point 32 :  -0.0625 0.3125 0.0000  plane waves:   15595
 k-point 33 :   0.3125 0.3750 0.0000  plane waves:   15595
 k-point 34 :  -0.1875 0.0625 0.0000  plane waves:   15544
 k-point 35 :  -0.2500-0.1875 0.0000  plane waves:   15544
 k-point 36 :  -0.0625-0.2500 0.0000  plane waves:   15544
 k-point 37 :  -0.2500-0.0625 0.0000  plane waves:   15544
 k-point 38 :  -0.0625 0.1875 0.0000  plane waves:   15544
 k-point 39 :   0.1875 0.2500 0.0000  plane waves:   15544
 k-point 40 :  -0.0625 0.0625 0.0000  plane waves:   15544
 k-point 41 :  -0.1250-0.0625 0.0000  plane waves:   15544
 k-point 42 :  -0.0625-0.1250 0.0000  plane waves:   15544
 k-point 43 :   0.1875 0.1875 0.0000  plane waves:   15537
 k-point 44 :   0.0000 0.1875 0.0000  plane waves:   15537
 k-point 45 :  -0.1875 0.0000 0.0000  plane waves:   15537
 k-point 46 :   0.3125 0.1875 0.0000  plane waves:   15578
 k-point 47 :   0.1250 0.3125 0.0000  plane waves:   15578
 k-point 48 :  -0.1875 0.1250 0.0000  plane waves:   15578
 k-point 49 :   0.1250-0.1875 0.0000  plane waves:   15578
 k-point 50 :  -0.1875-0.3125 0.0000  plane waves:   15578
 k-point 51 :  -0.3125-0.1250 0.0000  plane waves:   15578
 k-point 52 :   0.4375 0.1875 0.0000  plane waves:   15631
 k-point 53 :   0.2500 0.4375 0.0000  plane waves:   15631
 k-point 54 :  -0.1875 0.2500 0.0000  plane waves:   15631
 k-point 55 :   0.2500-0.1875 0.0000  plane waves:   15631
 k-point 56 :  -0.1875-0.4375 0.0000  plane waves:   15631
 k-point 57 :  -0.4375-0.2500 0.0000  plane waves:   15631
 k-point 58 :  -0.4375 0.1875 0.0000  plane waves:   15615
 k-point 59 :   0.3750-0.4375 0.0000  plane waves:   15615
 k-point 60 :  -0.1875 0.3750 0.0000  plane waves:   15615
 k-point 61 :   0.3750-0.1875 0.0000  plane waves:   15615
 k-point 62 :  -0.1875 0.4375 0.0000  plane waves:   15615
 k-point 63 :   0.4375-0.3750 0.0000  plane waves:   15615
 k-point 64 :  -0.3125 0.1875 0.0000  plane waves:   15634
 k-point 65 :   0.5000-0.3125 0.0000  plane waves:   15634
 k-point 66 :  -0.1875 0.5000 0.0000  plane waves:   15634
 k-point 67 :   0.5000-0.1875 0.0000  plane waves:   15634
 k-point 68 :  -0.1875 0.3125 0.0000  plane waves:   15634
 k-point 69 :   0.3125 0.5000 0.0000  plane waves:   15634
 k-point 70 :  -0.1875 0.1875 0.0000  plane waves:   15620
 k-point 71 :  -0.3750-0.1875 0.0000  plane waves:   15620
 k-point 72 :  -0.1875-0.3750 0.0000  plane waves:   15620
 k-point 73 :   0.3125 0.3125 0.0000  plane waves:   15575
 k-point 74 :   0.0000 0.3125 0.0000  plane waves:   15575
 k-point 75 :  -0.3125 0.0000 0.0000  plane waves:   15575
 k-point 76 :   0.4375 0.3125 0.0000  plane waves:   15613
 k-point 77 :   0.1250 0.4375 0.0000  plane waves:   15613
 k-point 78 :  -0.3125 0.1250 0.0000  plane waves:   15613
 k-point 79 :   0.1250-0.3125 0.0000  plane waves:   15613
 k-point 80 :  -0.3125-0.4375 0.0000  plane waves:   15613
 k-point 81 :  -0.4375-0.1250 0.0000  plane waves:   15613
 k-point 82 :  -0.4375 0.3125 0.0000  plane waves:   15622
 k-point 83 :   0.2500-0.4375 0.0000  plane waves:   15622
 k-point 84 :  -0.3125 0.2500 0.0000  plane waves:   15622
 k-point 85 :   0.2500-0.3125 0.0000  plane waves:   15622
 k-point 86 :  -0.3125 0.4375 0.0000  plane waves:   15622
 k-point 87 :   0.4375-0.2500 0.0000  plane waves:   15622
 k-point 88 :  -0.3125 0.3125 0.0000  plane waves:   15632
 k-point 89 :   0.3750-0.3125 0.0000  plane waves:   15632
 k-point 90 :  -0.3125 0.3750 0.0000  plane waves:   15632
 k-point 91 :   0.4375 0.4375 0.0000  plane waves:   15594
 k-point 92 :   0.0000 0.4375 0.0000  plane waves:   15594
 k-point 93 :  -0.4375 0.0000 0.0000  plane waves:   15594
 k-point 94 :  -0.4375 0.4375 0.0000  plane waves:   15602
 k-point 95 :   0.1250-0.4375 0.0000  plane waves:   15602
 k-point 96 :  -0.4375 0.1250 0.0000  plane waves:   15602

 maximum and minimum number of plane-waves per node :      1980     1918

 maximum number of plane-waves:     15634
 maximum index in each direction: 
   IXMAX=   10   IYMAX=   10   IZMAX=   42
   IXMIN=  -10   IYMIN=  -10   IZMIN=  -42


 parallel 3D FFT for wavefunctions:
    minimum data exchange during FFTs selected (reduces bandwidth)
 parallel 3D FFT for charge:
    minimum data exchange during FFTs selected (reduces bandwidth)


 total amount of memory used by VASP MPI-rank0   183932. kBytes
=======================================================================

   base      :      30000. kBytes
   nonl-proj :      81692. kBytes
   fftplans  :       3897. kBytes
   grid      :       6995. kBytes
   one-center:         31. kBytes
   wavefun   :      61317. kBytes
 
     INWAV:  cpu time    4.9845: real time    5.0255
 Broyden mixing: mesh for mixing (old mesh)
   NGX = 21   NGY = 21   NGZ = 85
  (NGX  = 80   NGY  = 80   NGZ  =360)
  gives a total of  37485 points

 charge density for first step will be calculated from the start-wavefunctions


--------------------------------------------------------------------------------------------------------


 Maximum index for augmentation-charges         1373 (set IRDMAX)


--------------------------------------------------------------------------------------------------------


 initial charge from wavefunction
 First call to EWALD:  gamma=   0.198
 Maximum number of real-space cells 5x 5x 1
 Maximum number of reciprocal cells 2x 2x 7

    FEWALD:  cpu time    0.0019: real time    0.0020


--------------------------------------- Iteration      1(   1)  ---------------------------------------


    POTLOK:  cpu time    0.0431: real time    0.0447
    SETDIJ:  cpu time    0.0041: real time    0.0043
     EDDAV:  cpu time   12.8514: real time   12.8909
       DOS:  cpu time    0.0052: real time    0.0052
    CHARGE:  cpu time    0.5856: real time    0.5874
    MIXING:  cpu time    0.0026: real time    0.0030
    --------------------------------------------
      LOOP:  cpu time   13.4921: real time   13.5356

 eigenvalue-minimisations  : 16096
 total energy-change (2. order) :-0.4615755E+02  (-0.4533902E-01)
 number of electron     132.0000003 magnetization 
 augmentation part       50.1628911 magnetization 

 Broyden mixing:
  rms(total) = 0.10289E+00    rms(broyden)= 0.10286E+00
  rms(prec ) = 0.12600E+00
  weight for this iteration     100.00

 Free energy of the ion-electron system (eV)
  ---------------------------------------------------
  alpha Z        PSCENC =       192.60990515
  Ewald energy   TEWEN  =     46186.31080966
  -Hartree energ DENC   =    -57132.52929390
  -exchange      EXHF   =         0.00000000
  -V(xc)+E(xc)   XCENC  =       -68.27327110
  PAW double counting   =     12088.47269462   -11588.89427794
  entropy T*S    EENTRO =        -0.02625508
  eigenvalues    EBANDS =      -562.92776908
  atomic energy  EATOM  =     10839.09990596
  Solvation  Ediel_sol  =         0.00000000
  ---------------------------------------------------
  free energy    TOTEN  =       -46.15755172 eV

  energy without entropy =      -46.13129664  energy(sigma->0) =      -46.14442418


--------------------------------------------------------------------------------------------------------




--------------------------------------- Iteration      1(   2)  ---------------------------------------


    POTLOK:  cpu time    0.0393: real time    0.0394
    SETDIJ:  cpu time    0.0037: real time    0.0037
    EDDIAG:  cpu time    2.0562: real time    2.0632
  RMM-DIIS:  cpu time    9.8308: real time    9.8599
    ORTHCH:  cpu time    0.2218: real time    0.2227
       DOS:  cpu time    0.0048: real time    0.0048
    CHARGE:  cpu time    0.5835: real time    0.5850
    MIXING:  cpu time    0.0021: real time    0.0022
    --------------------------------------------
      LOOP:  cpu time   12.7422: real time   12.7809

 eigenvalue-minimisations  : 16540
 total energy-change (2. order) :-0.6677977E-01  (-0.1997276E-01)
 number of electron     132.0000003 magnetization 
 augmentation part       50.3697964 magnetization 

 Broyden mixing:
  rms(total) = 0.29719E+00    rms(broyden)= 0.29714E+00
  rms(prec ) = 0.33476E+00
  weight for this iteration     100.00

 eigenvalues of (default mixing * dielectric matrix)
  average eigenvalue GAMMA=   0.2395
  0.2395

 Free energy of the ion-electron system (eV)
  ---------------------------------------------------
  alpha Z        PSCENC =       192.60990515
  Ewald energy   TEWEN  =     46186.31080966
  -Hartree energ DENC   =    -57121.01159658
  -exchange      EXHF   =         0.00000000
  -V(xc)+E(xc)   XCENC  =       -68.21464358
  PAW double counting   =     12082.81686080   -11583.40025786
  entropy T*S    EENTRO =        -0.02654401
  eigenvalues    EBANDS =      -574.40877102
  atomic energy  EATOM  =     10839.09990596
  Solvation  Ediel_sol  =         0.00000000
  ---------------------------------------------------
  free energy    TOTEN  =       -46.22433148 eV

  energy without entropy =      -46.19778747  energy(sigma->0) =      -46.21105948


--------------------------------------------------------------------------------------------------------




--------------------------------------- Iteration      1(   3)  ---------------------------------------


    POTLOK:  cpu time    0.0396: real time    0.0399
    SETDIJ:  cpu time    0.0039: real time    0.0039
    EDDIAG:  cpu time    2.0620: real time    2.0679
  RMM-DIIS:  cpu time    9.8771: real time    9.9062
    ORTHCH:  cpu time    0.2244: real time    0.2250
       DOS:  cpu time    0.0050: real time    0.0050
    CHARGE:  cpu time    0.5837: real time    0.5853
    MIXING:  cpu time    0.0021: real time    0.0021
    --------------------------------------------
      LOOP:  cpu time   12.7979: real time   12.8353

 eigenvalue-minimisations  : 16486
 total energy-change (2. order) : 0.9437767E-01  (-0.6562178E-02)
 number of electron     132.0000003 magnetization 
 augmentation part       50.2574556 magnetization 

 Broyden mixing:
  rms(total) = 0.33172E-01    rms(broyden)= 0.33040E-01
  rms(prec ) = 0.35373E-01
  weight for this iteration     100.00

 eigenvalues of (default mixing * dielectric matrix)
  average eigenvalue GAMMA=   0.4387
  0.5880  0.2893

 Free energy of the ion-electron system (eV)
  ---------------------------------------------------
  alpha Z        PSCENC =       192.60990515
  Ewald energy   TEWEN  =     46186.31080966
  -Hartree energ DENC   =    -57124.18123719
  -exchange      EXHF   =         0.00000000
  -V(xc)+E(xc)   XCENC  =       -68.27094894
  PAW double counting   =     12082.90518133   -11583.38609885
  entropy T*S    EENTRO =        -0.02714359
  eigenvalues    EBANDS =      -571.19032735
  atomic energy  EATOM  =     10839.09990596
  Solvation  Ediel_sol  =         0.00000000
  ---------------------------------------------------
  free energy    TOTEN  =       -46.12995381 eV

  energy without entropy =      -46.10281022  energy(sigma->0) =      -46.11638202


--------------------------------------------------------------------------------------------------------




--------------------------------------- Iteration      1(   4)  ---------------------------------------


    POTLOK:  cpu time    0.0397: real time    0.0400
    SETDIJ:  cpu time    0.0038: real time    0.0039
    EDDIAG:  cpu time    2.0496: real time    2.0552
  RMM-DIIS:  cpu time    9.8729: real time    9.9019
    ORTHCH:  cpu time    0.2207: real time    0.2212
       DOS:  cpu time    0.0052: real time    0.0052
    CHARGE:  cpu time    0.5850: real time    0.5867
    MIXING:  cpu time    0.0020: real time    0.0020
    --------------------------------------------
      LOOP:  cpu time   12.7788: real time   12.8161

 eigenvalue-minimisations  : 16472
 total energy-change (2. order) :-0.3206286E-03  (-0.6363785E-03)
 number of electron     132.0000003 magnetization 
 augmentation part       50.2401366 magnetization 

 Broyden mixing:
  rms(total) = 0.42484E-01    rms(broyden)= 0.42479E-01
  rms(prec ) = 0.48091E-01
  weight for this iteration     100.00

 eigenvalues of (default mixing * dielectric matrix)
  average eigenvalue GAMMA=   0.5020
  0.9193  0.3437  0.2429

 Free energy of the ion-electron system (eV)
  ---------------------------------------------------
  alpha Z        PSCENC =       192.60990515
  Ewald energy   TEWEN  =     46186.31080966
  -Hartree energ DENC   =    -57123.40850938
  -exchange      EXHF   =         0.00000000
  -V(xc)+E(xc)   XCENC  =       -68.25921442
  PAW double counting   =     12083.72593421   -11584.17286994
  entropy T*S    EENTRO =        -0.02717843
  eigenvalues    EBANDS =      -572.00905725
  atomic energy  EATOM  =     10839.09990596
  Solvation  Ediel_sol  =         0.00000000
  ---------------------------------------------------
  free energy    TOTEN  =       -46.13027444 eV

  energy without entropy =      -46.10309601  energy(sigma->0) =      -46.11668522


--------------------------------------------------------------------------------------------------------




--------------------------------------- Iteration      1(   5)  ---------------------------------------


    POTLOK:  cpu time    0.0395: real time    0.0398
    SETDIJ:  cpu time    0.0039: real time    0.0039
    EDDIAG:  cpu time    2.1231: real time    2.1290
  RMM-DIIS:  cpu time    9.9091: real time    9.9392
    ORTHCH:  cpu time    0.2209: real time    0.2216
       DOS:  cpu time    0.0053: real time    0.0053
    CHARGE:  cpu time    0.5840: real time    0.5860
    MIXING:  cpu time    0.0018: real time    0.0018
    --------------------------------------------
      LOOP:  cpu time   12.8876: real time   12.9266

 eigenvalue-minimisations  : 16315
 total energy-change (2. order) : 0.7185706E-03  (-0.2908126E-03)
 number of electron     132.0000003 magnetization 
 augmentation part       50.2387241 magnetization 

 Broyden mixing:
  rms(total) = 0.33139E-01    rms(broyden)= 0.33136E-01
  rms(prec ) = 0.39308E-01
  weight for this iteration     100.00

 eigenvalues of (default mixing * dielectric matrix)
  average eigenvalue GAMMA=   0.5499
  1.2116  0.5444  0.2678  0.1760

 Free energy of the ion-electron system (eV)
  ---------------------------------------------------
  alpha Z        PSCENC =       192.60990515
  Ewald energy   TEWEN  =     46186.31080966
  -Hartree energ DENC   =    -57123.23385320
  -exchange      EXHF   =         0.00000000
  -V(xc)+E(xc)   XCENC  =       -68.25902362
  PAW double counting   =     12084.28359008   -11584.72302769
  entropy T*S    EENTRO =        -0.02712280
  eigenvalues    EBANDS =      -572.19073941
  atomic energy  EATOM  =     10839.09990596
  Solvation  Ediel_sol  =         0.00000000
  ---------------------------------------------------
  free energy    TOTEN  =       -46.12955587 eV

  energy without entropy =      -46.10243307  energy(sigma->0) =      -46.11599447


--------------------------------------------------------------------------------------------------------




--------------------------------------- Iteration      1(   6)  ---------------------------------------


    POTLOK:  cpu time    0.0392: real time    0.0395
    SETDIJ:  cpu time    0.0038: real time    0.0038
    EDDIAG:  cpu time    2.0463: real time    2.0517
  RMM-DIIS:  cpu time    9.5797: real time    9.6100
    ORTHCH:  cpu time    0.2195: real time    0.2200
       DOS:  cpu time    0.0052: real time    0.0052
    CHARGE:  cpu time    0.5837: real time    0.5853
    MIXING:  cpu time    0.0019: real time    0.0019
    --------------------------------------------
      LOOP:  cpu time   12.4792: real time   12.5175

 eigenvalue-minimisations  : 15733
 total energy-change (2. order) : 0.9099817E-03  (-0.1119051E-03)
 number of electron     132.0000003 magnetization 
 augmentation part       50.2363202 magnetization 

 Broyden mixing:
  rms(total) = 0.14944E-01    rms(broyden)= 0.14939E-01
  rms(prec ) = 0.16313E-01
  weight for this iteration     100.00

 eigenvalues of (default mixing * dielectric matrix)
  average eigenvalue GAMMA=   0.6040
  1.5053  0.7246  0.3453  0.2687  0.1760

 Free energy of the ion-electron system (eV)
  ---------------------------------------------------
  alpha Z        PSCENC =       192.60990515
  Ewald energy   TEWEN  =     46186.31080966
  -Hartree energ DENC   =    -57122.51193319
  -exchange      EXHF   =         0.00000000
  -V(xc)+E(xc)   XCENC  =       -68.26501320
  PAW double counting   =     12084.73495631   -11585.16858740
  entropy T*S    EENTRO =        -0.02701707
  eigenvalues    EBANDS =      -572.91167210
  atomic energy  EATOM  =     10839.09990596
  Solvation  Ediel_sol  =         0.00000000
  ---------------------------------------------------
  free energy    TOTEN  =       -46.12864589 eV

  energy without entropy =      -46.10162882  energy(sigma->0) =      -46.11513735


--------------------------------------------------------------------------------------------------------




--------------------------------------- Iteration      1(   7)  ---------------------------------------


    POTLOK:  cpu time    0.0390: real time    0.0394
    SETDIJ:  cpu time    0.0039: real time    0.0039
    EDDIAG:  cpu time    2.0461: real time    2.0525
  RMM-DIIS:  cpu time    7.9589: real time    7.9818
    ORTHCH:  cpu time    0.2194: real time    0.2200
       DOS:  cpu time    0.0051: real time    0.0051
    CHARGE:  cpu time    0.5859: real time    0.5878
    MIXING:  cpu time    0.0021: real time    0.0021
    --------------------------------------------
      LOOP:  cpu time   10.8604: real time   10.8925

 eigenvalue-minimisations  : 12824
 total energy-change (2. order) : 0.1665340E-03  (-0.6294697E-04)
 number of electron     132.0000003 magnetization 
 augmentation part       50.2385564 magnetization 

 Broyden mixing:
  rms(total) = 0.91824E-02    rms(broyden)= 0.91809E-02
  rms(prec ) = 0.10299E-01
  weight for this iteration     100.00

 eigenvalues of (default mixing * dielectric matrix)
  average eigenvalue GAMMA=   0.7293
  1.8742  1.1727  0.5930  0.2960  0.2700  0.1701

 Free energy of the ion-electron system (eV)
  ---------------------------------------------------
  alpha Z        PSCENC =       192.60990515
  Ewald energy   TEWEN  =     46186.31080966
  -Hartree energ DENC   =    -57121.99923126
  -exchange      EXHF   =         0.00000000
  -V(xc)+E(xc)   XCENC  =       -68.26967146
  PAW double counting   =     12085.29629983   -11585.72939359
  entropy T*S    EENTRO =        -0.02712494
  eigenvalues    EBANDS =      -573.41997870
  atomic energy  EATOM  =     10839.09990596
  Solvation  Ediel_sol  =         0.00000000
  ---------------------------------------------------
  free energy    TOTEN  =       -46.12847935 eV

  energy without entropy =      -46.10135441  energy(sigma->0) =      -46.11491688


--------------------------------------------------------------------------------------------------------




--------------------------------------- Iteration      1(   8)  ---------------------------------------


    POTLOK:  cpu time    0.0390: real time    0.0394
    SETDIJ:  cpu time    0.0039: real time    0.0039
    EDDIAG:  cpu time    2.0490: real time    2.0551
  RMM-DIIS:  cpu time    6.1585: real time    6.1775
    ORTHCH:  cpu time    0.2182: real time    0.2187
       DOS:  cpu time    0.0050: real time    0.0050
    --------------------------------------------
      LOOP:  cpu time    8.4735: real time    8.4995

 eigenvalue-minimisations  :  9377
 total energy-change (2. order) :-0.4314550E-04  (-0.1721977E-04)
 number of electron     132.0000003 magnetization 
 augmentation part       50.2385564 magnetization 

 Free energy of the ion-electron system (eV)
  ---------------------------------------------------
  alpha Z        PSCENC =       192.60990515
  Ewald energy   TEWEN  =     46186.31080966
  -Hartree energ DENC   =    -57121.34869793
  -exchange      EXHF   =         0.00000000
  -V(xc)+E(xc)   XCENC  =       -68.27367123
  PAW double counting   =     12086.11850875   -11586.54411223
  entropy T*S    EENTRO =        -0.02708674
  eigenvalues    EBANDS =      -574.07408389
  atomic energy  EATOM  =     10839.09990596
  Solvation  Ediel_sol  =         0.00000000
  ---------------------------------------------------
  free energy    TOTEN  =       -46.12852250 eV

  energy without entropy =      -46.10143576  energy(sigma->0) =      -46.11497913


--------------------------------------------------------------------------------------------------------




 average (electrostatic) potential at core
  the test charge radii are     1.1199  1.2098  0.7215
  (the norm of the test charge is              1.0000)
       1 -81.0142       2 -81.0079       3 -81.1799       4 -81.1737       5 -81.1865
       6 -81.4211       7 -74.0873       8 -74.0674       9 -74.5959      10 -74.5935
      11 -74.6011      12 -74.2803      13 -77.1950
 
 
 
 E-fermi :  -1.4471     XC(G=0):  -4.3162     alpha+bet : -4.1389


 k-point     1 :       0.0625    0.0625    0.0000
  band No.  band energies     occupation 
      1     -19.4176      2.00000
      2      -8.5506      2.00000
      3      -7.5521      2.00000
      4      -7.4324      2.00000
      5      -7.4282      2.00000
      6      -7.3290      2.00000
      7      -6.5825      2.00000
      8      -6.5689      2.00000
      9      -6.4107      2.00000
     10      -6.2288      2.00000
     11      -6.1258      2.00000
     12      -5.9833      2.00000
     13      -5.9408      2.00000
     14      -5.9044      2.00000
     15      -5.8248      2.00000
     16      -5.6893      2.00000
     17      -5.5521      2.00000
     18      -5.4979      2.00000
     19      -5.4048      2.00000
     20      -5.2330      2.00000
     21      -5.0853      2.00000
     22      -4.8961      2.00000
     23      -4.8802      2.00000
     24      -4.6515      2.00000
     25      -4.4107      2.00000
     26      -4.3724      2.00000
     27      -4.3600      2.00000
     28      -4.2942      2.00000
     29      -4.2645      2.00000
     30      -4.2197      2.00000
     31      -4.2132      2.00000
     32      -4.1414      2.00000
     33      -4.0777      2.00000
     34      -3.8451      2.00000
     35      -3.7813      2.00000
     36      -3.7517      2.00000
     37      -3.6957      2.00000
     38      -3.5874      2.00000
     39      -3.4304      2.00000
     40      -3.3635      2.00000
     41      -3.3069      2.00000
     42      -3.1389      2.00000
     43      -3.0393      2.00000
     44      -3.0153      2.00000
     45      -2.8452      2.00000
     46      -2.7588      2.00000
     47      -2.6969      2.00000
     48      -2.5860      2.00000
     49      -2.5138      2.00000
     50      -2.4827      2.00000
     51      -2.2959      2.00000
     52      -2.2074      2.00000
     53      -2.1420      2.00000
     54      -2.0674      2.00000
     55      -1.9551      2.00000
     56      -1.8940      2.00000
     57      -1.8869      2.00000
     58      -1.8061      2.00000
     59      -1.7321      2.00000
     60      -1.7156      2.00000
     61      -1.6437      2.00000
     62      -1.5359      1.98797
     63      -1.4551      1.17829
     64      -1.4009      0.19077
     65      -1.3491      0.00555
     66      -1.3342      0.00141
     67      -1.2828      0.00000
     68      -0.1180      0.00000
     69       0.0710      0.00000
     70       0.2133      0.00000
     71       0.4947      0.00000
     72       0.9165      0.00000
     73       1.1289      0.00000
     74       1.5870      0.00000
     75       1.8107      0.00000
     76       1.9519      0.00000
     77       2.2437      0.00000
     78       3.1849      0.00000
     79       3.6275      0.00000
     80       3.9690      0.00000

 k-point     2 :       0.0000    0.0625    0.0000
  band No.  band energies     occupation 
      1     -19.4176      2.00000
      2      -8.5505      2.00000
      3      -7.5497      2.00000
      4      -7.4389      2.00000
      5      -7.4245      2.00000
      6      -7.3229      2.00000
      7      -6.5812      2.00000
      8      -6.5709      2.00000
      9      -6.4039      2.00000
     10      -6.2303      2.00000
     11      -6.1282      2.00000
     12      -5.9793      2.00000
     13      -5.9429      2.00000
     14      -5.9029      2.00000
     15      -5.8299      2.00000
     16      -5.6922      2.00000
     17      -5.5445      2.00000
     18      -5.5002      2.00000
     19      -5.4075      2.00000
     20      -5.2348      2.00000
     21      -5.0817      2.00000
     22      -4.8985      2.00000
     23      -4.8828      2.00000
     24      -4.6489      2.00000
     25      -4.4022      2.00000
     26      -4.3858      2.00000
     27      -4.3579      2.00000
     28      -4.3040      2.00000
     29      -4.2498      2.00000
     30      -4.2406      2.00000
     31      -4.2129      2.00000
     32      -4.1472      2.00000
     33      -4.0739      2.00000
     34      -3.8626      2.00000
     35      -3.7769      2.00000
     36      -3.7318      2.00000
     37      -3.7118      2.00000
     38      -3.5682      2.00000
     39      -3.4427      2.00000
     40      -3.3634      2.00000
     41      -3.2901      2.00000
     42      -3.1273      2.00000
     43      -3.0698      2.00000
     44      -2.9704      2.00000
     45      -2.8540      2.00000
     46      -2.7640      2.00000
     47      -2.6926      2.00000
     48      -2.5831      2.00000
     49      -2.5675      2.00000
     50      -2.4844      2.00000
     51      -2.2833      2.00000
     52      -2.2141      2.00000
     53      -2.1186      2.00000
     54      -2.0529      2.00000
     55      -1.9745      2.00000
     56      -1.9048      2.00000
     57      -1.8662      2.00000
     58      -1.7893      2.00000
     59      -1.7425      2.00000
     60      -1.7014      2.00000
     61      -1.6343      2.00000
     62      -1.5792      1.99981
     63      -1.4533      1.13754
     64      -1.3804      0.05912
     65      -1.3708      0.03076
     66      -1.3225      0.00042
     67      -1.2869      0.00001
     68      -0.1485      0.00000
     69       0.0981      0.00000
     70       0.2161      0.00000
     71       0.4279      0.00000
     72       0.9663      0.00000
     73       1.2190      0.00000
     74       1.5288      0.00000
     75       1.7976      0.00000
     76       1.9416      0.00000
     77       2.2591      0.00000
     78       3.2615      0.00000
     79       3.6071      0.00000
     80       3.8846      0.00000

 k-point     3 :      -0.0625    0.0000    0.0000
  band No.  band energies     occupation 
      1     -19.4176      2.00000
      2      -8.5505      2.00000
      3      -7.5495      2.00000
      4      -7.4381      2.00000
      5      -7.4254      2.00000
      6      -7.3230      2.00000
      7      -6.5820      2.00000
      8      -6.5700      2.00000
      9      -6.4039      2.00000
     10      -6.2303      2.00000
     11      -6.1282      2.00000
     12      -5.9792      2.00000
     13      -5.9430      2.00000
     14      -5.9029      2.00000
     15      -5.8299      2.00000
     16      -5.6922      2.00000
     17      -5.5445      2.00000
     18      -5.5001      2.00000
     19      -5.4075      2.00000
     20      -5.2348      2.00000
     21      -5.0818      2.00000
     22      -4.8993      2.00000
     23      -4.8817      2.00000
     24      -4.6490      2.00000
     25      -4.4016      2.00000
     26      -4.3866      2.00000
     27      -4.3592      2.00000
     28      -4.3028      2.00000
     29      -4.2516      2.00000
     30      -4.2384      2.00000
     31      -4.2140      2.00000
     32      -4.1466      2.00000
     33      -4.0738      2.00000
     34      -3.8632      2.00000
     35      -3.7761      2.00000
     36      -3.7332      2.00000
     37      -3.7106      2.00000
     38      -3.5683      2.00000
     39      -3.4431      2.00000
     40      -3.3632      2.00000
     41      -3.2903      2.00000
     42      -3.1274      2.00000
     43      -3.0689      2.00000
     44      -2.9709      2.00000
     45      -2.8531      2.00000
     46      -2.7630      2.00000
     47      -2.6940      2.00000
     48      -2.5852      2.00000
     49      -2.5673      2.00000
     50      -2.4831      2.00000
     51      -2.2840      2.00000
     52      -2.2129      2.00000
     53      -2.1190      2.00000
     54      -2.0525      2.00000
     55      -1.9745      2.00000
     56      -1.9047      2.00000
     57      -1.8665      2.00000
     58      -1.7889      2.00000
     59      -1.7411      2.00000
     60      -1.7022      2.00000
     61      -1.6361      2.00000
     62      -1.5792      1.99981
     63      -1.4532      1.13646
     64      -1.3822      0.06612
     65      -1.3691      0.02729
     66      -1.3223      0.00041
     67      -1.2866      0.00001
     68      -0.1447      0.00000
     69       0.0950      0.00000
     70       0.2163      0.00000
     71       0.4245      0.00000
     72       0.9640      0.00000
     73       1.2240      0.00000
     74       1.5300      0.00000
     75       1.8044      0.00000
     76       1.9358      0.00000
     77       2.2575      0.00000
     78       3.2599      0.00000
     79       3.6072      0.00000
     80       3.8868      0.00000

 k-point     4 :       0.1875    0.0625    0.0000
  band No.  band energies     occupation 
      1     -19.4147      2.00000
      2      -8.4042      2.00000
      3      -7.4712      2.00000
      4      -7.3602      2.00000
      5      -7.2913      2.00000
      6      -7.1853      2.00000
      7      -6.5577      2.00000
      8      -6.4975      2.00000
      9      -6.2890      2.00000
     10      -6.1886      2.00000
     11      -6.0369      2.00000
     12      -5.9390      2.00000
     13      -5.8962      2.00000
     14      -5.8090      2.00000
     15      -5.7435      2.00000
     16      -5.6117      2.00000
     17      -5.5235      2.00000
     18      -5.4453      2.00000
     19      -5.3729      2.00000
     20      -5.2073      2.00000
     21      -5.0673      2.00000
     22      -4.9282      2.00000
     23      -4.8651      2.00000
     24      -4.6740      2.00000
     25      -4.4881      2.00000
     26      -4.4350      2.00000
[...]
      1     -19.4038      2.00000
      2      -7.7094      2.00000
      3      -7.0807      2.00000
      4      -6.7311      2.00000
      5      -6.6298      2.00000
      6      -6.5829      2.00000
      7      -6.2080      2.00000
      8      -6.0278      2.00000
      9      -6.0044      2.00000
     10      -5.9237      2.00000
     11      -5.8882      2.00000
     12      -5.8093      2.00000
     13      -5.5703      2.00000
     14      -5.4666      2.00000
     15      -5.4366      2.00000
     16      -5.4030      2.00000
     17      -5.3660      2.00000
     18      -5.2695      2.00000
     19      -5.2414      2.00000
     20      -5.1280      2.00000
     21      -5.0371      2.00000
     22      -5.0289      2.00000
     23      -4.9450      2.00000
     24      -4.8620      2.00000
     25      -4.8311      2.00000
     26      -4.7609      2.00000
     27      -4.7382      2.00000
     28      -4.6592      2.00000
     29      -4.4656      2.00000
     30      -4.4508      2.00000
     31      -4.3284      2.00000
     32      -4.2101      2.00000
     33      -4.1836      2.00000
     34      -4.1428      2.00000
     35      -4.0855      2.00000
     36      -4.0197      2.00000
     37      -3.9817      2.00000
     38      -3.8987      2.00000
     39      -3.8326      2.00000
     40      -3.7672      2.00000
     41      -3.6859      2.00000
     42      -3.6588      2.00000
     43      -3.5117      2.00000
     44      -3.4117      2.00000
     45      -3.3067      2.00000
     46      -3.1832      2.00000
     47      -3.1812      2.00000
     48      -3.1196      2.00000
     49      -2.9304      2.00000
     50      -2.9072      2.00000
     51      -2.8560      2.00000
     52      -2.8153      2.00000
     53      -2.7145      2.00000
     54      -2.5253      2.00000
     55      -2.4378      2.00000
     56      -2.4157      2.00000
     57      -2.3802      2.00000
     58      -2.2451      2.00000
     59      -2.1632      2.00000
     60      -2.0957      2.00000
     61      -2.0328      2.00000
     62      -1.9765      2.00000
     63      -1.8832      2.00000
     64      -1.8590      2.00000
     65      -1.5962      1.99998
     66      -1.4571      1.22204
     67      -1.4355      0.74279
     68      -1.0996      0.00000
     69      -0.5691      0.00000
     70      -0.0336      0.00000
     71       0.7207      0.00000
     72       0.8148      0.00000
     73       1.5995      0.00000
     74       2.4946      0.00000
     75       2.5587      0.00000
     76       3.3247      0.00000
     77       3.3589      0.00000
     78       4.8168      0.00000
     79       4.9810      0.00000
     80       5.1131      0.00000

 k-point    95 :       0.1250   -0.4375    0.0000
  band No.  band energies     occupation 
      1     -19.4039      2.00000
      2      -7.7111      2.00000
      3      -7.0650      2.00000
      4      -6.7389      2.00000
      5      -6.5951      2.00000
      6      -6.2974      2.00000
      7      -6.1513      2.00000
      8      -6.0919      2.00000
      9      -6.0076      2.00000
     10      -5.8696      2.00000
     11      -5.8367      2.00000
     12      -5.7068      2.00000
     13      -5.6009      2.00000
     14      -5.5197      2.00000
     15      -5.3950      2.00000
     16      -5.3691      2.00000
     17      -5.3043      2.00000
     18      -5.2766      2.00000
     19      -5.1841      2.00000
     20      -5.1357      2.00000
     21      -5.1021      2.00000
     22      -5.0783      2.00000
     23      -4.9767      2.00000
     24      -4.9506      2.00000
     25      -4.9066      2.00000
     26      -4.8630      2.00000
     27      -4.8333      2.00000
     28      -4.7188      2.00000
     29      -4.6826      2.00000
     30      -4.5444      2.00000
     31      -4.4465      2.00000
     32      -4.4062      2.00000
     33      -4.3421      2.00000
     34      -4.2477      2.00000
     35      -4.1562      2.00000
     36      -4.0238      2.00000
     37      -3.9529      2.00000
     38      -3.8778      2.00000
     39      -3.8267      2.00000
     40      -3.7258      2.00000
     41      -3.5952      2.00000
     42      -3.4761      2.00000
     43      -3.4096      2.00000
     44      -3.3452      2.00000
     45      -3.2153      2.00000
     46      -3.1818      2.00000
     47      -3.0910      2.00000
     48      -3.0530      2.00000
     49      -2.9477      2.00000
     50      -2.8635      2.00000
     51      -2.7919      2.00000
     52      -2.7708      2.00000
     53      -2.6519      2.00000
     54      -2.5749      2.00000
     55      -2.5509      2.00000
     56      -2.4400      2.00000
     57      -2.3168      2.00000
     58      -2.2079      2.00000
     59      -2.1614      2.00000
     60      -2.1363      2.00000
     61      -2.0612      2.00000
     62      -2.0266      2.00000
     63      -1.8144      2.00000
     64      -1.7378      2.00000
     65      -1.6840      2.00000
     66      -1.5535      1.99738
     67      -1.4471      0.99890
     68      -1.1320      0.00000
     69      -0.4454      0.00000
     70      -0.0425      0.00000
     71       0.6407      0.00000
     72       0.9076      0.00000
     73       1.5981      0.00000
     74       2.4649      0.00000
     75       2.7511      0.00000
     76       3.2254      0.00000
     77       3.4540      0.00000
     78       4.7988      0.00000
     79       4.9449      0.00000
     80       5.0814      0.00000

 k-point    96 :      -0.4375    0.1250    0.0000
  band No.  band energies     occupation 
      1     -19.4039      2.00000
      2      -7.7092      2.00000
      3      -7.0650      2.00000
      4      -6.7382      2.00000
      5      -6.5956      2.00000
      6      -6.2951      2.00000
      7      -6.1537      2.00000
      8      -6.0893      2.00000
      9      -6.0058      2.00000
     10      -5.8706      2.00000
     11      -5.8369      2.00000
     12      -5.7066      2.00000
     13      -5.5994      2.00000
     14      -5.5205      2.00000
     15      -5.3923      2.00000
     16      -5.3672      2.00000
     17      -5.3044      2.00000
     18      -5.2769      2.00000
     19      -5.1863      2.00000
     20      -5.1369      2.00000
     21      -5.1007      2.00000
     22      -5.0802      2.00000
     23      -4.9766      2.00000
     24      -4.9538      2.00000
     25      -4.9053      2.00000
     26      -4.8631      2.00000
     27      -4.8339      2.00000
     28      -4.7204      2.00000
     29      -4.6856      2.00000
     30      -4.5437      2.00000
     31      -4.4465      2.00000
     32      -4.4051      2.00000
     33      -4.3453      2.00000
     34      -4.2481      2.00000
     35      -4.1552      2.00000
     36      -4.0208      2.00000
     37      -3.9551      2.00000
     38      -3.8791      2.00000
     39      -3.8282      2.00000
     40      -3.7273      2.00000
     41      -3.5971      2.00000
     42      -3.4773      2.00000
     43      -3.4061      2.00000
     44      -3.3465      2.00000
     45      -3.2181      2.00000
     46      -3.1845      2.00000
     47      -3.0923      2.00000
     48      -3.0526      2.00000
     49      -2.9481      2.00000
     50      -2.8590      2.00000
     51      -2.7923      2.00000
     52      -2.7690      2.00000
     53      -2.6517      2.00000
     54      -2.5759      2.00000
     55      -2.5517      2.00000
     56      -2.4381      2.00000
     57      -2.3162      2.00000
     58      -2.2088      2.00000
     59      -2.1626      2.00000
     60      -2.1358      2.00000
     61      -2.0589      2.00000
     62      -2.0253      2.00000
     63      -1.8135      2.00000
     64      -1.7396      2.00000
     65      -1.6879      2.00000
     66      -1.5518      1.99693
     67      -1.4468      0.99257
     68      -1.1315      0.00000
     69      -0.4443      0.00000
     70      -0.0425      0.00000
     71       0.6442      0.00000
     72       0.9088      0.00000
     73       1.5997      0.00000
     74       2.4661      0.00000
     75       2.7488      0.00000
     76       3.2331      0.00000
     77       3.4552      0.00000
     78       4.7949      0.00000
     79       4.9448      0.00000
     80       5.0840      0.00000


--------------------------------------------------------------------------------------------------------


 soft charge-density along one line, spin component           1
         0         1         2         3         4         5         6         7         8         9
 total charge-density along one line
 
 pseudopotential strength for first ion, spin component:           1
 -7.208  -0.006  -0.014  -0.006  -0.005  -7.234  -0.006  -0.013
 -0.006  -7.154   0.003   0.004  -0.008  -0.006  -7.182   0.003
 -0.014   0.003  -7.152  -0.007  -0.006  -0.013   0.003  -7.180
 -0.006   0.004  -0.007  -7.144  -0.006  -0.005   0.004  -0.007
 -0.005  -0.008  -0.006  -0.006  -7.204  -0.004  -0.008  -0.005
 -7.234  -0.006  -0.013  -0.005  -0.004  -7.235  -0.005  -0.013
 -0.006  -7.182   0.003   0.004  -0.008  -0.005  -7.186   0.002
 -0.013   0.003  -7.180  -0.007  -0.005  -0.013   0.002  -7.184
 -0.005   0.004  -0.007  -7.172  -0.006  -0.005   0.004  -0.006
 -0.004  -0.008  -0.005  -0.006  -7.230  -0.004  -0.008  -0.005
 -0.003  -0.001  -0.016   0.004  -0.002  -0.003  -0.001  -0.015
 -0.005  -0.002  -0.027   0.006  -0.003  -0.004  -0.002  -0.026
 -0.000  -0.015  -0.000   0.000   0.000  -0.000  -0.014  -0.000
  0.000  -0.000  -0.018  -0.000   0.000   0.000  -0.000  -0.017
  0.000   0.000   0.000  -0.014  -0.000   0.000   0.000   0.000
 -0.000  -0.016  -0.000   0.000   0.000  -0.000  -0.015  -0.000
  0.000  -0.000  -0.020  -0.000   0.000   0.000  -0.000  -0.019
  0.000   0.000   0.000  -0.016  -0.000   0.000   0.000   0.000
 total augmentation occupancy for first ion, spin component:           1
  2.365   0.013  -0.209  -0.099  -0.183  -1.038  -0.020   0.157   0.009   0.138  -0.107   0.017  -0.001   0.010  -0.024   0.000
  0.013   2.359   0.008  -0.041  -0.060  -0.021  -0.762   0.007   0.003  -0.029   0.043  -0.009  -0.124   0.006   0.005  -0.011
 -0.209   0.008   2.510  -0.027  -0.093   0.158   0.006  -1.034  -0.003   0.082   0.553  -0.138   0.014  -0.103  -0.023  -0.000
 -0.099  -0.041  -0.027   2.352   0.008   0.012   0.004  -0.003  -0.740  -0.019  -0.115   0.030   0.004  -0.010  -0.110   0.001
 -0.183  -0.060  -0.093   0.008   2.567   0.138  -0.031   0.082  -0.019  -1.201  -0.026   0.004  -0.025   0.010   0.011   0.003
 -1.038  -0.021   0.158   0.012   0.138   1.466   0.026  -0.132   0.052  -0.113   0.099  -0.029  -0.006  -0.009   0.035   0.001
 -0.020  -0.762   0.006   0.004  -0.031   0.026   1.024  -0.012   0.024   0.093  -0.029   0.004   0.143  -0.006  -0.006  -0.013
  0.157   0.007  -1.034  -0.003   0.082  -0.132  -0.012   1.360   0.016  -0.078  -0.411   0.075  -0.013   0.199   0.025   0.001
  0.009   0.003  -0.003  -0.740  -0.019   0.052   0.024   0.016   0.997   0.027   0.066  -0.009  -0.005   0.010   0.129   0.000
  0.138  -0.029   0.082  -0.019  -1.201  -0.113   0.093  -0.078   0.027   1.610   0.033  -0.013   0.029  -0.009  -0.016  -0.003
 -0.107   0.043   0.553  -0.115  -0.026   0.099  -0.029  -0.411   0.066   0.033   1.789  -0.313   0.005   0.172  -0.009  -0.001
  0.017  -0.009  -0.138   0.030   0.004  -0.029   0.004   0.075  -0.009  -0.013  -0.313   0.058  -0.001  -0.034   0.002   0.000
 -0.001  -0.124   0.014   0.004  -0.025  -0.006   0.143  -0.013  -0.005   0.029   0.005  -0.001   0.170  -0.003   0.008  -0.012
  0.010   0.006  -0.103  -0.010   0.010  -0.009  -0.006   0.199   0.010  -0.009   0.172  -0.034  -0.003   0.098   0.006   0.000
 -0.024   0.005  -0.023  -0.110   0.011   0.035  -0.006   0.025   0.129  -0.016  -0.009   0.002   0.008   0.006   0.174  -0.001
  0.000  -0.011  -0.000   0.001   0.003   0.001  -0.013   0.001   0.000  -0.003  -0.001   0.000  -0.012   0.000  -0.001   0.001
  0.001  -0.001  -0.021   0.002   0.000   0.000   0.000  -0.015  -0.000   0.000  -0.022   0.005   0.000  -0.009  -0.000   0.000
  0.002   0.001   0.001  -0.011  -0.000  -0.003   0.000  -0.002  -0.012   0.001   0.002  -0.000  -0.001  -0.000  -0.013   0.000


------------------------ aborting loop because EDIFF is reached ----------------------------------------


    CHARGE:  cpu time    0.5856: real time    0.5878
    FORLOC:  cpu time    0.0055: real time    0.0055
    FORNL :  cpu time    2.1158: real time    2.1221
    STRESS:  cpu time    4.8276: real time    4.8417
    FORCOR:  cpu time    0.0457: real time    0.0459
    FORHAR:  cpu time    0.0125: real time    0.0128
    MIXING:  cpu time    0.0017: real time    0.0017
    OFIELD:  cpu time    0.0001: real time    0.0002

  FORCE on cell =-STRESS in cart. coord.  units (eV):
  Direction    XX          YY          ZZ          XY          YZ          ZX
  --------------------------------------------------------------------------------------
  Alpha Z   192.60991   192.60991   192.60991
  Ewald   53421.47877 53419.32385-60654.50484    -1.82196     3.81825     1.87054
  Hartree 55963.50924 55962.35014-54807.91435    -0.45648     1.31054     0.27956
  E(xc)    -639.33893  -639.20807  -644.20198    -0.12503     0.04735     0.06224
  Local  ************************113228.92998     0.77599    -4.00813    -0.61733
  n-local   -68.03386   -67.31293   -67.32423    -0.67368    -0.00237    -0.09902
  augment   853.75534   852.42825   865.13561     1.19399    -0.38730    -0.53903
  Kinetic  1860.07082  1858.50408  1886.95011     1.46183    -0.74830    -1.07716
  Fock        0.00000     0.00000     0.00000     0.00000     0.00000     0.00000
  -------------------------------------------------------------------------------------
  Total      -4.31769    -4.82282    -0.31981     0.35465     0.03003    -0.12021
  in kB      -9.61751   -10.74266    -0.71236     0.78998     0.06689    -0.26775
  external pressure =       -7.02 kB  Pullay stress =        0.00 kB


 VOLUME and BASIS-vectors are now :
 -----------------------------------------------------------------------------
  energy-cutoff  :      450.00
  volume of cell :      719.28
      direct lattice vectors                 reciprocal lattice vectors
     5.795062739  0.000000000  0.000000000     0.172560686 -0.099627958  0.000000000
     2.897531369  5.018671548  0.000000000     0.000000000  0.199255917  0.000000000
     0.000000000  0.000000000 24.731648912     0.000000000  0.000000000  0.040434021

  length of vectors
     5.795062739  5.795062739 24.731648912     0.199255917  0.199255917  0.040434021


 FORCES acting on ions
    electron-ion (+dipol)            ewald-force                    non-local-force                 convergence-correction
 -----------------------------------------------------------------------------------------------
   -.556E+01 0.299E+01 0.192E+04   0.537E+01 -.283E+01 -.191E+04   0.153E+00 -.121E+00 -.275E+01   0.343E-01 -.288E-01 0.803E-01
   -.130E+00 -.616E+01 0.192E+04   0.193E+00 0.593E+01 -.192E+04   -.201E-01 0.189E+00 -.276E+01   -.357E-01 0.315E-01 0.425E-01
   -.150E+00 -.226E+01 0.199E+03   -.220E+00 0.210E+01 -.200E+03   0.371E+00 0.167E+00 0.710E+00   -.490E-02 -.100E-01 -.960E-02
   -.298E+01 0.353E+00 0.198E+03   0.262E+01 -.610E+00 -.198E+03   0.342E+00 0.255E+00 0.695E+00   0.160E-01 0.780E-02 0.194E-01
   0.171E+00 0.119E+01 0.201E+03   0.177E+00 -.956E+00 -.202E+03   -.361E+00 -.221E+00 0.971E+00   0.130E-01 -.235E-01 0.735E-02
   0.366E+01 0.101E+01 0.111E+03   -.339E+01 -.894E+00 -.110E+03   -.260E+00 -.135E+00 -.114E+01   -.997E-02 0.185E-01 0.616E-02
   0.583E+01 0.334E+01 0.215E+04   -.552E+01 -.318E+01 -.215E+04   -.262E+00 -.164E+00 -.129E+01   -.352E-01 0.130E-01 0.487E-01
   -.212E+00 0.232E+00 0.220E+04   0.138E+00 -.241E+00 -.220E+04   0.439E-01 0.142E-01 -.148E+01   0.345E-01 -.101E-01 0.882E-01
   -.548E+02 0.303E+02 -.185E+04   0.564E+02 -.313E+02 0.185E+04   -.156E+01 0.956E+00 0.142E+01   -.233E-01 0.211E-01 -.980E-01
   0.697E-01 -.618E+02 -.185E+04   -.132E+00 0.637E+02 0.185E+04   0.225E-01 -.184E+01 0.144E+01   0.279E-01 -.208E-01 -.694E-01
   0.555E+02 0.307E+02 -.186E+04   -.570E+02 -.315E+02 0.185E+04   0.146E+01 0.868E+00 0.111E+01   0.237E-01 -.102E-01 -.628E-01
   -.489E+00 0.106E+01 -.177E+04   0.518E+00 -.108E+01 0.177E+04   0.182E-01 -.563E-02 0.257E+01   -.399E-01 0.127E-01 -.108E+00
   -.658E+00 -.741E+00 -.154E+04   0.899E+00 0.943E+00 0.156E+04   -.256E+00 -.197E+00 -.257E+02   0.217E-02 -.104E-02 -.730E-01
 -----------------------------------------------------------------------------------------------
   0.309E+00 0.240E+00 0.263E+02   -.112E-13 -.888E-14 0.227E-12   -.316E+00 -.237E+00 -.262E+02   0.270E-02 0.167E-03 -.128E+00
 
 
 POSITION                                       TOTAL-FORCE (eV/Angst)
 -----------------------------------------------------------------------------------
      5.78256      0.01263     10.09206        -0.001726      0.006596     -0.010793
      4.35273      2.48863     10.09105         0.007524     -0.008097     -0.006185
      5.82605      3.32590     12.30649        -0.003790      0.003150      0.008214
      1.45431      0.85705     12.30940         0.007461      0.006053     -0.007968
      2.88173      3.32837     12.30584         0.000951     -0.008729     -0.005835
      4.36318      0.83530     12.46969        -0.007516     -0.001217      0.006801
      2.92361      0.01343     10.01850         0.012118      0.002811     -0.003990
      1.45495      2.51108      9.94176         0.004225     -0.005577      0.008007
      2.94660      1.62339     14.75942         0.009158      0.002028      0.001197
      7.24222      4.22342     14.75956        -0.011564     -0.004293      0.003715
      5.74301      1.62337     14.76252        -0.012125      0.014183      0.005609
      4.34462      4.16440     14.54718         0.007312     -0.011025     -0.001273
      1.44246      2.48638     16.02641        -0.012027      0.004119      0.002501
 -----------------------------------------------------------------------------------
    total drift:                               -0.004610      0.002439      0.008747


--------------------------------------------------------------------------------------------------------



  FREE ENERGIE OF THE ION-ELECTRON SYSTEM (eV)
  ---------------------------------------------------
  free  energy   TOTEN  =       -46.12852250 eV

  energy  without entropy=      -46.10143576  energy(sigma->0) =      -46.11497913
 


--------------------------------------------------------------------------------------------------------


    POTLOK:  cpu time    0.0419: real time    0.0420


--------------------------------------------------------------------------------------------------------


 writing wavefunctions
     LOOP+:  cpu time  112.0831: real time  112.8742
    4ORBIT:  cpu time    0.0000: real time    0.0000

 total amount of memory used by VASP MPI-rank0   183932. kBytes
=======================================================================

   base      :      30000. kBytes
   nonl-proj :      81692. kBytes
   fftplans  :       3897. kBytes
   grid      :       6995. kBytes
   one-center:         31. kBytes
   wavefun   :      61317. kBytes
 
  
  
 General timing and accounting informations for this job:
 ========================================================
  
                  Total CPU time used (sec):      123.287
                            User time (sec):      118.104
                          System time (sec):        5.184
                         Elapsed time (sec):      124.399
  
                   Maximum memory used (kb):      244844.
                   Average memory used (kb):           0.
  
                          Minor page faults:        52794
                          Major page faults:            0
                 Voluntary context switches:         1632
